LAMMPS data file. msi2lmp v3.9.10 / 10 Mar 2023 / CGCMM for Pd_TiO2

   5090 atoms
      0 bonds
      0 angles
      0 dihedrals
      0 impropers

   4 atom types
   0 bond types
   0 angle types
   0 dihedral types
   0 improper types

-110 135 xlo xhi
-0.000343742 38.954656258 ylo yhi
0.164047150 55.164047150 zlo zhi

Masses

   1   47.9000  # Ti2
   2   47.9000  # Ti1
   3   15.9990  # O
   4 106.400000 # Pd

Pair Coeffs # lj/cut/coul/long

   1   0.6087 1.9565 # Ti2
   2   0.6087 1.9565 # Ti1
   3   0.1554 3.1655 # O
   4   9.839001   2.520000 # Pd

Atoms # full

      1      1   1  0.000000    10.747796608     1.947406284    11.126185415   0   0   0 # Ti2
      2      1   2  0.000000    12.218904324     1.947406284    14.733236618   0   0   0 # Ti1
      3      1   2  0.000000    13.689908884     1.947406284    18.340287821   0   0   0 # Ti1
      4      1   2  0.000000    18.852247748     7.790656284    12.027862505   0   0   0 # Ti1
      5      1   2  0.000000    10.007755464     7.790656284    15.634913708   0   0   0 # Ti1
      6      1   1  0.000000    11.478760024     7.790656284    19.241964911   0   0   0 # Ti2
      7      1   1  0.000000    15.905596608     7.790656284    11.126185415   0   0   0 # Ti2
      8      1   2  0.000000    17.376704324     7.790656284    14.733236618   0   0   0 # Ti1
      9      1   2  0.000000    18.847708884     7.790656284    18.340287821   0   0   0 # Ti1
     10      1   2  0.000000    13.694447748     1.947406284    12.027862505   0   0   0 # Ti1
     11      1   2  0.000000    15.165555464     1.947406284    15.634913708   0   0   0 # Ti1
     12      1   1  0.000000    16.636560024     1.947406284    19.241964911   0   0   0 # Ti2
     13      1   3  0.000000    11.836401876     1.947406284    12.785888378   0   0   0 # O
     14      1   3  0.000000    13.307406436     1.947406284    16.392939581   0   0   0 # O
     15      1   3  0.000000    14.778514152     1.947406284    19.999990784   0   0   0 # O
     16      1   3  0.000000    19.205247580     1.947406284    11.883868445   0   0   0 # O
     17      1   3  0.000000    10.360755296     1.947406284    15.490919648   0   0   0 # O
     18      1   3  0.000000    11.831863012     1.947406284    19.098313694   0   0   0 # O
     19      1   3  0.000000    10.394796776     7.790656284    11.270179475   0   0   0 # O
     20      1   3  0.000000    11.865801336     7.790656284    14.877230678   0   0   0 # O
     21      1   3  0.000000    13.336909052     7.790656284    18.484281881   0   0   0 # O
     22      1   3  0.000000    17.763745636     7.790656284    10.368502385   0   0   0 # O
     23      1   3  0.000000    19.234750196     7.790656284    13.975553588   0   0   0 # O
     24      1   3  0.000000    10.390257912     7.790656284    17.582604791   0   0   0 # O
     25      1   3  0.000000    16.994201876     7.790656284    12.785888378   0   0   0 # O
     26      1   3  0.000000    18.465206436     7.790656284    16.392939581   0   0   0 # O
     27      1   3  0.000000    19.936314152     7.790656284    19.999990784   0   0   0 # O
     28      1   3  0.000000    14.047447580     7.790656284    11.883868445   0   0   0 # O
     29      1   3  0.000000    15.518555296     7.790656284    15.490919648   0   0   0 # O
     30      1   3  0.000000    16.989663012     7.790656284    19.098313694   0   0   0 # O
     31      1   3  0.000000    15.552596776     1.947406284    11.270179475   0   0   0 # O
     32      1   3  0.000000    17.023601336     1.947406284    14.877230678   0   0   0 # O
     33      1   3  0.000000    18.494709052     1.947406284    18.484281881   0   0   0 # O
     34      1   3  0.000000    12.605945636     1.947406284    10.368502385   0   0   0 # O
     35      1   3  0.000000    14.076950196     1.947406284    13.975553588   0   0   0 # O
     36      1   3  0.000000    15.548057912     1.947406284    17.582604791   0   0   0 # O
     37      1   1  0.000000    10.747796608     5.842906284    11.126185415   0   0   0 # Ti2
     38      1   2  0.000000    12.218904324     5.842906284    14.733236618   0   0   0 # Ti1
     39      1   2  0.000000    13.689908884     5.842906284    18.340287821   0   0   0 # Ti1
     40      1   2  0.000000    18.852247748     3.895156284    12.027862505   0   0   0 # Ti1
     41      1   2  0.000000    10.007755464     3.895156284    15.634913708   0   0   0 # Ti1
     42      1   1  0.000000    11.478760024     3.895156284    19.241964911   0   0   0 # Ti2
     43      1   1  0.000000    15.905596608     3.895156284    11.126185415   0   0   0 # Ti2
     44      1   2  0.000000    17.376704324     3.895156284    14.733236618   0   0   0 # Ti1
     45      1   2  0.000000    18.847708884     3.895156284    18.340287821   0   0   0 # Ti1
     46      1   2  0.000000    13.694447748     5.842906284    12.027862505   0   0   0 # Ti1
     47      1   2  0.000000    15.165555464     5.842906284    15.634913708   0   0   0 # Ti1
     48      1   1  0.000000    16.636560024     5.842906284    19.241964911   0   0   0 # Ti2
     49      1   3  0.000000    11.836401876     5.842906284    12.785888378   0   0   0 # O
     50      1   3  0.000000    13.307406436     5.842906284    16.392939581   0   0   0 # O
     51      1   3  0.000000    14.778514152     5.842906284    19.999990784   0   0   0 # O
     52      1   3  0.000000    19.205247580     5.842906284    11.883868445   0   0   0 # O
     53      1   3  0.000000    10.360755296     5.842906284    15.490919648   0   0   0 # O
     54      1   3  0.000000    11.831863012     5.842906284    19.098313694   0   0   0 # O
     55      1   3  0.000000    10.394796776     3.895156284    11.270179475   0   0   0 # O
     56      1   3  0.000000    11.865801336     3.895156284    14.877230678   0   0   0 # O
     57      1   3  0.000000    13.336909052     3.895156284    18.484281881   0   0   0 # O
     58      1   3  0.000000    17.763745636     3.895156284    10.368502385   0   0   0 # O
     59      1   3  0.000000    19.234750196     3.895156284    13.975553588   0   0   0 # O
     60      1   3  0.000000    10.390257912     3.895156284    17.582604791   0   0   0 # O
     61      1   3  0.000000    16.994201876     3.895156284    12.785888378   0   0   0 # O
     62      1   3  0.000000    18.465206436     3.895156284    16.392939581   0   0   0 # O
     63      1   3  0.000000    19.936314152     3.895156284    19.999990784   0   0   0 # O
     64      1   3  0.000000    14.047447580     3.895156284    11.883868445   0   0   0 # O
     65      1   3  0.000000    15.518555296     3.895156284    15.490919648   0   0   0 # O
     66      1   3  0.000000    16.989663012     3.895156284    19.098313694   0   0   0 # O
     67      1   3  0.000000    15.552596776     5.842906284    11.270179475   0   0   0 # O
     68      1   3  0.000000    17.023601336     5.842906284    14.877230678   0   0   0 # O
     69      1   3  0.000000    18.494709052     5.842906284    18.484281881   0   0   0 # O
     70      1   3  0.000000    12.605945636     5.842906284    10.368502385   0   0   0 # O
     71      1   3  0.000000    14.076950196     5.842906284    13.975553588   0   0   0 # O
     72      1   3  0.000000    15.548057912     5.842906284    17.582604791   0   0   0 # O
     73      1   1  0.000000    21.063396608     1.947406284    11.126185415   0   0   0 # Ti2
     74      1   2  0.000000    22.534504324     1.947406284    14.733236618   0   0   0 # Ti1
     75      1   2  0.000000    24.005508884     1.947406284    18.340287821   0   0   0 # Ti1
     76      1   2  0.000000    29.167847748     7.790656284    12.027862505   0   0   0 # Ti1
     77      1   2  0.000000    20.323355464     7.790656284    15.634913708   0   0   0 # Ti1
     78      1   1  0.000000    21.794360024     7.790656284    19.241964911   0   0   0 # Ti2
     79      1   1  0.000000    26.221196608     7.790656284    11.126185415   0   0   0 # Ti2
     80      1   2  0.000000    27.692304324     7.790656284    14.733236618   0   0   0 # Ti1
     81      1   2  0.000000    29.163308884     7.790656284    18.340287821   0   0   0 # Ti1
     82      1   2  0.000000    24.010047748     1.947406284    12.027862505   0   0   0 # Ti1
     83      1   2  0.000000    25.481155464     1.947406284    15.634913708   0   0   0 # Ti1
     84      1   1  0.000000    26.952160024     1.947406284    19.241964911   0   0   0 # Ti2
     85      1   3  0.000000    22.152001876     1.947406284    12.785888378   0   0   0 # O
     86      1   3  0.000000    23.623006436     1.947406284    16.392939581   0   0   0 # O
     87      1   3  0.000000    25.094114152     1.947406284    19.999990784   0   0   0 # O
     88      1   3  0.000000    29.520847580     1.947406284    11.883868445   0   0   0 # O
     89      1   3  0.000000    20.676355296     1.947406284    15.490919648   0   0   0 # O
     90      1   3  0.000000    22.147463012     1.947406284    19.098313694   0   0   0 # O
     91      1   3  0.000000    20.710396776     7.790656284    11.270179475   0   0   0 # O
     92      1   3  0.000000    22.181401336     7.790656284    14.877230678   0   0   0 # O
     93      1   3  0.000000    23.652509052     7.790656284    18.484281881   0   0   0 # O
     94      1   3  0.000000    28.079345636     7.790656284    10.368502385   0   0   0 # O
     95      1   3  0.000000    29.550350196     7.790656284    13.975553588   0   0   0 # O
     96      1   3  0.000000    20.705857912     7.790656284    17.582604791   0   0   0 # O
     97      1   3  0.000000    27.309801876     7.790656284    12.785888378   0   0   0 # O
     98      1   3  0.000000    28.780806436     7.790656284    16.392939581   0   0   0 # O
     99      1   3  0.000000    30.251914152     7.790656284    19.999990784   0   0   0 # O
    100      1   3  0.000000    24.363047580     7.790656284    11.883868445   0   0   0 # O
    101      1   3  0.000000    25.834155296     7.790656284    15.490919648   0   0   0 # O
    102      1   3  0.000000    27.305263012     7.790656284    19.098313694   0   0   0 # O
    103      1   3  0.000000    25.868196776     1.947406284    11.270179475   0   0   0 # O
    104      1   3  0.000000    27.339201336     1.947406284    14.877230678   0   0   0 # O
    105      1   3  0.000000    28.810309052     1.947406284    18.484281881   0   0   0 # O
    106      1   3  0.000000    22.921545636     1.947406284    10.368502385   0   0   0 # O
    107      1   3  0.000000    24.392550196     1.947406284    13.975553588   0   0   0 # O
    108      1   3  0.000000    25.863657912     1.947406284    17.582604791   0   0   0 # O
    109      1   1  0.000000    21.063396608     5.842906284    11.126185415   0   0   0 # Ti2
    110      1   2  0.000000    22.534504324     5.842906284    14.733236618   0   0   0 # Ti1
    111      1   2  0.000000    24.005508884     5.842906284    18.340287821   0   0   0 # Ti1
    112      1   2  0.000000    29.167847748     3.895156284    12.027862505   0   0   0 # Ti1
    113      1   2  0.000000    20.323355464     3.895156284    15.634913708   0   0   0 # Ti1
    114      1   1  0.000000    21.794360024     3.895156284    19.241964911   0   0   0 # Ti2
    115      1   1  0.000000    26.221196608     3.895156284    11.126185415   0   0   0 # Ti2
    116      1   2  0.000000    27.692304324     3.895156284    14.733236618   0   0   0 # Ti1
    117      1   2  0.000000    29.163308884     3.895156284    18.340287821   0   0   0 # Ti1
    118      1   2  0.000000    24.010047748     5.842906284    12.027862505   0   0   0 # Ti1
    119      1   2  0.000000    25.481155464     5.842906284    15.634913708   0   0   0 # Ti1
    120      1   1  0.000000    26.952160024     5.842906284    19.241964911   0   0   0 # Ti2
    121      1   3  0.000000    22.152001876     5.842906284    12.785888378   0   0   0 # O
    122      1   3  0.000000    23.623006436     5.842906284    16.392939581   0   0   0 # O
    123      1   3  0.000000    25.094114152     5.842906284    19.999990784   0   0   0 # O
    124      1   3  0.000000    29.520847580     5.842906284    11.883868445   0   0   0 # O
    125      1   3  0.000000    20.676355296     5.842906284    15.490919648   0   0   0 # O
    126      1   3  0.000000    22.147463012     5.842906284    19.098313694   0   0   0 # O
    127      1   3  0.000000    20.710396776     3.895156284    11.270179475   0   0   0 # O
    128      1   3  0.000000    22.181401336     3.895156284    14.877230678   0   0   0 # O
    129      1   3  0.000000    23.652509052     3.895156284    18.484281881   0   0   0 # O
    130      1   3  0.000000    28.079345636     3.895156284    10.368502385   0   0   0 # O
    131      1   3  0.000000    29.550350196     3.895156284    13.975553588   0   0   0 # O
    132      1   3  0.000000    20.705857912     3.895156284    17.582604791   0   0   0 # O
    133      1   3  0.000000    27.309801876     3.895156284    12.785888378   0   0   0 # O
    134      1   3  0.000000    28.780806436     3.895156284    16.392939581   0   0   0 # O
    135      1   3  0.000000    30.251914152     3.895156284    19.999990784   0   0   0 # O
    136      1   3  0.000000    24.363047580     3.895156284    11.883868445   0   0   0 # O
    137      1   3  0.000000    25.834155296     3.895156284    15.490919648   0   0   0 # O
    138      1   3  0.000000    27.305263012     3.895156284    19.098313694   0   0   0 # O
    139      1   3  0.000000    25.868196776     5.842906284    11.270179475   0   0   0 # O
    140      1   3  0.000000    27.339201336     5.842906284    14.877230678   0   0   0 # O
    141      1   3  0.000000    28.810309052     5.842906284    18.484281881   0   0   0 # O
    142      1   3  0.000000    22.921545636     5.842906284    10.368502385   0   0   0 # O
    143      1   3  0.000000    24.392550196     5.842906284    13.975553588   0   0   0 # O
    144      1   3  0.000000    25.863657912     5.842906284    17.582604791   0   0   0 # O
    145      1   1  0.000000    31.378996608     1.947406284    11.126185415   0   0   0 # Ti2
    146      1   2  0.000000    32.850104324     1.947406284    14.733236618   0   0   0 # Ti1
    147      1   2  0.000000    34.321108884     1.947406284    18.340287821   0   0   0 # Ti1
    148      1   2  0.000000    39.483447748     7.790656284    12.027862505   0   0   0 # Ti1
    149      1   2  0.000000    30.638955464     7.790656284    15.634913708   0   0   0 # Ti1
    150      1   1  0.000000    32.109960024     7.790656284    19.241964911   0   0   0 # Ti2
    151      1   1  0.000000    36.536796608     7.790656284    11.126185415   0   0   0 # Ti2
    152      1   2  0.000000    38.007904324     7.790656284    14.733236618   0   0   0 # Ti1
    153      1   2  0.000000    39.478908884     7.790656284    18.340287821   0   0   0 # Ti1
    154      1   2  0.000000    34.325647748     1.947406284    12.027862505   0   0   0 # Ti1
    155      1   2  0.000000    35.796755464     1.947406284    15.634913708   0   0   0 # Ti1
    156      1   1  0.000000    37.267760024     1.947406284    19.241964911   0   0   0 # Ti2
    157      1   3  0.000000    32.467601876     1.947406284    12.785888378   0   0   0 # O
    158      1   3  0.000000    33.938606436     1.947406284    16.392939581   0   0   0 # O
    159      1   3  0.000000    35.409714152     1.947406284    19.999990784   0   0   0 # O
    160      1   3  0.000000    39.836447580     1.947406284    11.883868445   0   0   0 # O
    161      1   3  0.000000    30.991955296     1.947406284    15.490919648   0   0   0 # O
    162      1   3  0.000000    32.463063012     1.947406284    19.098313694   0   0   0 # O
    163      1   3  0.000000    31.025996776     7.790656284    11.270179475   0   0   0 # O
    164      1   3  0.000000    32.497001336     7.790656284    14.877230678   0   0   0 # O
    165      1   3  0.000000    33.968109052     7.790656284    18.484281881   0   0   0 # O
    166      1   3  0.000000    38.394945636     7.790656284    10.368502385   0   0   0 # O
    167      1   3  0.000000    39.865950196     7.790656284    13.975553588   0   0   0 # O
    168      1   3  0.000000    31.021457912     7.790656284    17.582604791   0   0   0 # O
    169      1   3  0.000000    37.625401876     7.790656284    12.785888378   0   0   0 # O
    170      1   3  0.000000    39.096406436     7.790656284    16.392939581   0   0   0 # O
    171      1   3  0.000000    40.567514152     7.790656284    19.999990784   0   0   0 # O
    172      1   3  0.000000    34.678647580     7.790656284    11.883868445   0   0   0 # O
    173      1   3  0.000000    36.149755296     7.790656284    15.490919648   0   0   0 # O
    174      1   3  0.000000    37.620863012     7.790656284    19.098313694   0   0   0 # O
    175      1   3  0.000000    36.183796776     1.947406284    11.270179475   0   0   0 # O
    176      1   3  0.000000    37.654801336     1.947406284    14.877230678   0   0   0 # O
    177      1   3  0.000000    39.125909052     1.947406284    18.484281881   0   0   0 # O
    178      1   3  0.000000    33.237145636     1.947406284    10.368502385   0   0   0 # O
    179      1   3  0.000000    34.708150196     1.947406284    13.975553588   0   0   0 # O
    180      1   3  0.000000    36.179257912     1.947406284    17.582604791   0   0   0 # O
    181      1   1  0.000000    31.378996608     5.842906284    11.126185415   0   0   0 # Ti2
    182      1   2  0.000000    32.850104324     5.842906284    14.733236618   0   0   0 # Ti1
    183      1   2  0.000000    34.321108884     5.842906284    18.340287821   0   0   0 # Ti1
    184      1   2  0.000000    39.483447748     3.895156284    12.027862505   0   0   0 # Ti1
    185      1   2  0.000000    30.638955464     3.895156284    15.634913708   0   0   0 # Ti1
    186      1   1  0.000000    32.109960024     3.895156284    19.241964911   0   0   0 # Ti2
    187      1   1  0.000000    36.536796608     3.895156284    11.126185415   0   0   0 # Ti2
    188      1   2  0.000000    38.007904324     3.895156284    14.733236618   0   0   0 # Ti1
    189      1   2  0.000000    39.478908884     3.895156284    18.340287821   0   0   0 # Ti1
    190      1   2  0.000000    34.325647748     5.842906284    12.027862505   0   0   0 # Ti1
    191      1   2  0.000000    35.796755464     5.842906284    15.634913708   0   0   0 # Ti1
    192      1   1  0.000000    37.267760024     5.842906284    19.241964911   0   0   0 # Ti2
    193      1   3  0.000000    32.467601876     5.842906284    12.785888378   0   0   0 # O
    194      1   3  0.000000    33.938606436     5.842906284    16.392939581   0   0   0 # O
    195      1   3  0.000000    35.409714152     5.842906284    19.999990784   0   0   0 # O
    196      1   3  0.000000    39.836447580     5.842906284    11.883868445   0   0   0 # O
    197      1   3  0.000000    30.991955296     5.842906284    15.490919648   0   0   0 # O
    198      1   3  0.000000    32.463063012     5.842906284    19.098313694   0   0   0 # O
    199      1   3  0.000000    31.025996776     3.895156284    11.270179475   0   0   0 # O
    200      1   3  0.000000    32.497001336     3.895156284    14.877230678   0   0   0 # O
    201      1   3  0.000000    33.968109052     3.895156284    18.484281881   0   0   0 # O
    202      1   3  0.000000    38.394945636     3.895156284    10.368502385   0   0   0 # O
    203      1   3  0.000000    39.865950196     3.895156284    13.975553588   0   0   0 # O
    204      1   3  0.000000    31.021457912     3.895156284    17.582604791   0   0   0 # O
    205      1   3  0.000000    37.625401876     3.895156284    12.785888378   0   0   0 # O
    206      1   3  0.000000    39.096406436     3.895156284    16.392939581   0   0   0 # O
    207      1   3  0.000000    40.567514152     3.895156284    19.999990784   0   0   0 # O
    208      1   3  0.000000    34.678647580     3.895156284    11.883868445   0   0   0 # O
    209      1   3  0.000000    36.149755296     3.895156284    15.490919648   0   0   0 # O
    210      1   3  0.000000    37.620863012     3.895156284    19.098313694   0   0   0 # O
    211      1   3  0.000000    36.183796776     5.842906284    11.270179475   0   0   0 # O
    212      1   3  0.000000    37.654801336     5.842906284    14.877230678   0   0   0 # O
    213      1   3  0.000000    39.125909052     5.842906284    18.484281881   0   0   0 # O
    214      1   3  0.000000    33.237145636     5.842906284    10.368502385   0   0   0 # O
    215      1   3  0.000000    34.708150196     5.842906284    13.975553588   0   0   0 # O
    216      1   3  0.000000    36.179257912     5.842906284    17.582604791   0   0   0 # O
    217      1   1  0.000000    41.694596608     1.947406284    11.126185415   0   0   0 # Ti2
    218      1   2  0.000000    43.165704324     1.947406284    14.733236618   0   0   0 # Ti1
    219      1   2  0.000000    44.636708884     1.947406284    18.340287821   0   0   0 # Ti1
    220      1   2  0.000000    49.799047748     7.790656284    12.027862505   0   0   0 # Ti1
    221      1   2  0.000000    40.954555464     7.790656284    15.634913708   0   0   0 # Ti1
    222      1   1  0.000000    42.425560024     7.790656284    19.241964911   0   0   0 # Ti2
    223      1   1  0.000000    46.852396608     7.790656284    11.126185415   0   0   0 # Ti2
    224      1   2  0.000000    48.323504324     7.790656284    14.733236618   0   0   0 # Ti1
    225      1   2  0.000000    49.794508884     7.790656284    18.340287821   0   0   0 # Ti1
    226      1   2  0.000000    44.641247748     1.947406284    12.027862505   0   0   0 # Ti1
    227      1   2  0.000000    46.112355464     1.947406284    15.634913708   0   0   0 # Ti1
    228      1   1  0.000000    47.583360024     1.947406284    19.241964911   0   0   0 # Ti2
    229      1   3  0.000000    42.783201876     1.947406284    12.785888378   0   0   0 # O
    230      1   3  0.000000    44.254206436     1.947406284    16.392939581   0   0   0 # O
    231      1   3  0.000000    45.725314152     1.947406284    19.999990784   0   0   0 # O
    232      1   3  0.000000    50.152047580     1.947406284    11.883868445   0   0   0 # O
    233      1   3  0.000000    41.307555296     1.947406284    15.490919648   0   0   0 # O
    234      1   3  0.000000    42.778663012     1.947406284    19.098313694   0   0   0 # O
    235      1   3  0.000000    41.341596776     7.790656284    11.270179475   0   0   0 # O
    236      1   3  0.000000    42.812601336     7.790656284    14.877230678   0   0   0 # O
    237      1   3  0.000000    44.283709052     7.790656284    18.484281881   0   0   0 # O
    238      1   3  0.000000    48.710545636     7.790656284    10.368502385   0   0   0 # O
    239      1   3  0.000000    50.181550196     7.790656284    13.975553588   0   0   0 # O
    240      1   3  0.000000    41.337057912     7.790656284    17.582604791   0   0   0 # O
    241      1   3  0.000000    47.941001876     7.790656284    12.785888378   0   0   0 # O
    242      1   3  0.000000    49.412006436     7.790656284    16.392939581   0   0   0 # O
    243      1   3  0.000000    50.883114152     7.790656284    19.999990784   0   0   0 # O
    244      1   3  0.000000    44.994247580     7.790656284    11.883868445   0   0   0 # O
    245      1   3  0.000000    46.465355296     7.790656284    15.490919648   0   0   0 # O
    246      1   3  0.000000    47.936463012     7.790656284    19.098313694   0   0   0 # O
    247      1   3  0.000000    46.499396776     1.947406284    11.270179475   0   0   0 # O
    248      1   3  0.000000    47.970401336     1.947406284    14.877230678   0   0   0 # O
    249      1   3  0.000000    49.441509052     1.947406284    18.484281881   0   0   0 # O
    250      1   3  0.000000    43.552745636     1.947406284    10.368502385   0   0   0 # O
    251      1   3  0.000000    45.023750196     1.947406284    13.975553588   0   0   0 # O
    252      1   3  0.000000    46.494857912     1.947406284    17.582604791   0   0   0 # O
    253      1   1  0.000000    41.694596608     5.842906284    11.126185415   0   0   0 # Ti2
    254      1   2  0.000000    43.165704324     5.842906284    14.733236618   0   0   0 # Ti1
    255      1   2  0.000000    44.636708884     5.842906284    18.340287821   0   0   0 # Ti1
    256      1   2  0.000000    49.799047748     3.895156284    12.027862505   0   0   0 # Ti1
    257      1   2  0.000000    40.954555464     3.895156284    15.634913708   0   0   0 # Ti1
    258      1   1  0.000000    42.425560024     3.895156284    19.241964911   0   0   0 # Ti2
    259      1   1  0.000000    46.852396608     3.895156284    11.126185415   0   0   0 # Ti2
    260      1   2  0.000000    48.323504324     3.895156284    14.733236618   0   0   0 # Ti1
    261      1   2  0.000000    49.794508884     3.895156284    18.340287821   0   0   0 # Ti1
    262      1   2  0.000000    44.641247748     5.842906284    12.027862505   0   0   0 # Ti1
    263      1   2  0.000000    46.112355464     5.842906284    15.634913708   0   0   0 # Ti1
    264      1   1  0.000000    47.583360024     5.842906284    19.241964911   0   0   0 # Ti2
    265      1   3  0.000000    42.783201876     5.842906284    12.785888378   0   0   0 # O
    266      1   3  0.000000    44.254206436     5.842906284    16.392939581   0   0   0 # O
    267      1   3  0.000000    45.725314152     5.842906284    19.999990784   0   0   0 # O
    268      1   3  0.000000    50.152047580     5.842906284    11.883868445   0   0   0 # O
    269      1   3  0.000000    41.307555296     5.842906284    15.490919648   0   0   0 # O
    270      1   3  0.000000    42.778663012     5.842906284    19.098313694   0   0   0 # O
    271      1   3  0.000000    41.341596776     3.895156284    11.270179475   0   0   0 # O
    272      1   3  0.000000    42.812601336     3.895156284    14.877230678   0   0   0 # O
    273      1   3  0.000000    44.283709052     3.895156284    18.484281881   0   0   0 # O
    274      1   3  0.000000    48.710545636     3.895156284    10.368502385   0   0   0 # O
    275      1   3  0.000000    50.181550196     3.895156284    13.975553588   0   0   0 # O
    276      1   3  0.000000    41.337057912     3.895156284    17.582604791   0   0   0 # O
    277      1   3  0.000000    47.941001876     3.895156284    12.785888378   0   0   0 # O
    278      1   3  0.000000    49.412006436     3.895156284    16.392939581   0   0   0 # O
    279      1   3  0.000000    50.883114152     3.895156284    19.999990784   0   0   0 # O
    280      1   3  0.000000    44.994247580     3.895156284    11.883868445   0   0   0 # O
    281      1   3  0.000000    46.465355296     3.895156284    15.490919648   0   0   0 # O
    282      1   3  0.000000    47.936463012     3.895156284    19.098313694   0   0   0 # O
    283      1   3  0.000000    46.499396776     5.842906284    11.270179475   0   0   0 # O
    284      1   3  0.000000    47.970401336     5.842906284    14.877230678   0   0   0 # O
    285      1   3  0.000000    49.441509052     5.842906284    18.484281881   0   0   0 # O
    286      1   3  0.000000    43.552745636     5.842906284    10.368502385   0   0   0 # O
    287      1   3  0.000000    45.023750196     5.842906284    13.975553588   0   0   0 # O
    288      1   3  0.000000    46.494857912     5.842906284    17.582604791   0   0   0 # O
    289      1   1  0.000000    52.010196608     1.947406284    11.126185415   0   0   0 # Ti2
    290      1   2  0.000000    53.481304324     1.947406284    14.733236618   0   0   0 # Ti1
    291      1   2  0.000000    54.952308884     1.947406284    18.340287821   0   0   0 # Ti1
    292      1   2  0.000000    60.114647748     7.790656284    12.027862505   0   0   0 # Ti1
    293      1   2  0.000000    51.270155464     7.790656284    15.634913708   0   0   0 # Ti1
    294      1   1  0.000000    52.741160024     7.790656284    19.241964911   0   0   0 # Ti2
    295      1   1  0.000000    57.167996608     7.790656284    11.126185415   0   0   0 # Ti2
    296      1   2  0.000000    58.639104324     7.790656284    14.733236618   0   0   0 # Ti1
    297      1   2  0.000000    60.110108884     7.790656284    18.340287821   0   0   0 # Ti1
    298      1   2  0.000000    54.956847748     1.947406284    12.027862505   0   0   0 # Ti1
    299      1   2  0.000000    56.427955464     1.947406284    15.634913708   0   0   0 # Ti1
    300      1   1  0.000000    57.898960024     1.947406284    19.241964911   0   0   0 # Ti2
    301      1   3  0.000000    53.098801876     1.947406284    12.785888378   0   0   0 # O
    302      1   3  0.000000    54.569806436     1.947406284    16.392939581   0   0   0 # O
    303      1   3  0.000000    56.040914152     1.947406284    19.999990784   0   0   0 # O
    304      1   3  0.000000    60.467647580     1.947406284    11.883868445   0   0   0 # O
    305      1   3  0.000000    51.623155296     1.947406284    15.490919648   0   0   0 # O
    306      1   3  0.000000    53.094263012     1.947406284    19.098313694   0   0   0 # O
    307      1   3  0.000000    51.657196776     7.790656284    11.270179475   0   0   0 # O
    308      1   3  0.000000    53.128201336     7.790656284    14.877230678   0   0   0 # O
    309      1   3  0.000000    54.599309052     7.790656284    18.484281881   0   0   0 # O
    310      1   3  0.000000    59.026145636     7.790656284    10.368502385   0   0   0 # O