LAMMPS data file. msi2lmp v3.9.10 / 10 Mar 2023 / CGCMM for Gra1

   1152 atoms
      0 bonds
      0 angles
      0 dihedrals
      0 impropers

   1 atom types
   0 bond types
   0 angle types
   0 dihedral types
   0 improper types

-110 135 xlo xhi
-0.000343742 38.954656258 ylo yhi
0.164047150 55.164047150 zlo zhi

Masses

   1   12.0107 # C

Pair Coeffs # lj/cut/coul/long

   1   0.0663 3.5812   # C


Atoms # full

      1      1   1  0.000000     -2     1.629999460    18.069577099   0   0   0 # C
      2      1   1  0.000000     -2     0.400000000    17.359436579   0   0   0 # C
      3      1   1  0.000000     -2     0.400000000    15.939155540   0   0   0 # C
      4      1   1  0.000000     -2     1.629999460    13.808733982   0   0   0 # C
      5      1   1  0.000000     -2     1.629999460    15.229015021   0   0   0 # C
      6      1   1  0.000000     -2     0.400000000    13.098593462   0   0   0 # C
      7      1   1  0.000000     -2     0.400000000    11.678312424   0   0   0 # C
      8      1   1  0.000000     -2     1.629999460     9.547890865   0   0   0 # C
      9      1   1  0.000000     -2     1.629999460    10.968171904   0   0   0 # C
     10      1   1  0.000000     -2     0.400000000     8.837750346   0   0   0 # C
     11      1   1  0.000000     -2     0.400000000     7.417469307   0   0   0 # C
     12      1   1  0.000000     -2     1.629999460     5.287047749   0   0   0 # C
     13      1   1  0.000000     -2     1.629999460     6.707328788   0   0   0 # C
     14      1   1  0.000000     -2     0.400000000     4.576907229   0   0   0 # C
     15      1   1  0.000000     -2     0.400000000     3.156626190   0   0   0 # C
     16      1   1  0.000000     -2     1.629999460     1.026204632   0   0   0 # C
     17      1   1  0.000000     -2     1.629999460     2.446485671   0   0   0 # C
     18      1   1  0.000000     -2     0.400000000     0.316064113   0   0   0 # C
     19      1   1  0.000000     -2     4.089998381    18.069577099   0   0   0 # C
     20      1   1  0.000000     -2     2.859998920    17.359436579   0   0   0 # C
     21      1   1  0.000000     -2     2.859998920    15.939155540   0   0   0 # C
     22      1   1  0.000000     -2     4.089998381    13.808733982   0   0   0 # C
     23      1   1  0.000000     -2     4.089998381    15.229015021   0   0   0 # C
     24      1   1  0.000000     -2     2.859998920    13.098593462   0   0   0 # C
     25      1   1  0.000000     -2     2.859998920    11.678312424   0   0   0 # C
     26      1   1  0.000000     -2     4.089998381     9.547890865   0   0   0 # C
     27      1   1  0.000000     -2     4.089998381    10.968171904   0   0   0 # C
     28      1   1  0.000000     -2     2.859998920     8.837750346   0   0   0 # C
     29      1   1  0.000000     -2     2.859998920     7.417469307   0   0   0 # C
     30      1   1  0.000000     -2     4.089998381     5.287047749   0   0   0 # C
     31      1   1  0.000000     -2     4.089998381     6.707328788   0   0   0 # C
     32      1   1  0.000000     -2     2.859998920     4.576907229   0   0   0 # C
     33      1   1  0.000000     -2     2.859998920     3.156626190   0   0   0 # C
     34      1   1  0.000000     -2     4.089998381     1.026204632   0   0   0 # C
     35      1   1  0.000000     -2     4.089998381     2.446485671   0   0   0 # C
     36      1   1  0.000000     -2     2.859998920     0.316064113   0   0   0 # C
     37      1   1  0.000000     -2     6.549997301    18.069577099   0   0   0 # C
     38      1   1  0.000000     -2     5.319997841    17.359436579   0   0   0 # C
     39      1   1  0.000000     -2     5.319997841    15.939155540   0   0   0 # C
     40      1   1  0.000000     -2     6.549997301    13.808733982   0   0   0 # C
     41      1   1  0.000000     -2     6.549997301    15.229015021   0   0   0 # C
     42      1   1  0.000000     -2     5.319997841    13.098593462   0   0   0 # C
     43      1   1  0.000000     -2     5.319997841    11.678312424   0   0   0 # C
     44      1   1  0.000000     -2     6.549997301     9.547890865   0   0   0 # C
     45      1   1  0.000000     -2     6.549997301    10.968171904   0   0   0 # C
     46      1   1  0.000000     -2     5.319997841     8.837750346   0   0   0 # C
     47      1   1  0.000000     -2     5.319997841     7.417469307   0   0   0 # C
     48      1   1  0.000000     -2     6.549997301     5.287047749   0   0   0 # C
     49      1   1  0.000000     -2     6.549997301     6.707328788   0   0   0 # C
     50      1   1  0.000000     -2     5.319997841     4.576907229   0   0   0 # C
     51      1   1  0.000000     -2     5.319997841     3.156626190   0   0   0 # C
     52      1   1  0.000000     -2     6.549997301     1.026204632   0   0   0 # C
     53      1   1  0.000000     -2     6.549997301     2.446485671   0   0   0 # C
     54      1   1  0.000000     -2     5.319997841     0.316064113   0   0   0 # C
     55      1   1  0.000000     -2     9.009996221    18.069577099   0   0   0 # C
     56      1   1  0.000000     -2     7.779996761    17.359436579   0   0   0 # C
     57      1   1  0.000000     -2     7.779996761    15.939155540   0   0   0 # C
     58      1   1  0.000000     -2     9.009996221    13.808733982   0   0   0 # C
     59      1   1  0.000000     -2     9.009996221    15.229015021   0   0   0 # C
     60      1   1  0.000000     -2     7.779996761    13.098593462   0   0   0 # C
     61      1   1  0.000000     -2     7.779996761    11.678312424   0   0   0 # C
     62      1   1  0.000000     -2     9.009996221     9.547890865   0   0   0 # C
     63      1   1  0.000000     -2     9.009996221    10.968171904   0   0   0 # C
     64      1   1  0.000000     -2     7.779996761     8.837750346   0   0   0 # C
     65      1   1  0.000000     -2     7.779996761     7.417469307   0   0   0 # C
     66      1   1  0.000000     -2     9.009996221     5.287047749   0   0   0 # C
     67      1   1  0.000000     -2     9.009996221     6.707328788   0   0   0 # C
     68      1   1  0.000000     -2     7.779996761     4.576907229   0   0   0 # C
     69      1   1  0.000000     -2     7.779996761     3.156626190   0   0   0 # C
     70      1   1  0.000000     -2     9.009996221     1.026204632   0   0   0 # C
     71      1   1  0.000000     -2     9.009996221     2.446485671   0   0   0 # C
     72      1   1  0.000000     -2     7.779996761     0.316064113   0   0   0 # C
     73      1   1  0.000000     -2    11.469995142    18.069577099   0   0   0 # C
     74      1   1  0.000000     -2    10.239995681    17.359436579   0   0   0 # C
     75      1   1  0.000000     -2    10.239995681    15.939155540   0   0   0 # C
     76      1   1  0.000000     -2    11.469995142    13.808733982   0   0   0 # C
     77      1   1  0.000000     -2    11.469995142    15.229015021   0   0   0 # C
     78      1   1  0.000000     -2    10.239995681    13.098593462   0   0   0 # C
     79      1   1  0.000000     -2    10.239995681    11.678312424   0   0   0 # C
     80      1   1  0.000000     -2    11.469995142     9.547890865   0   0   0 # C
     81      1   1  0.000000     -2    11.469995142    10.968171904   0   0   0 # C
     82      1   1  0.000000     -2    10.239995681     8.837750346   0   0   0 # C
     83      1   1  0.000000     -2    10.239995681     7.417469307   0   0   0 # C
     84      1   1  0.000000     -2    11.469995142     5.287047749   0   0   0 # C
     85      1   1  0.000000     -2    11.469995142     6.707328788   0   0   0 # C
     86      1   1  0.000000     -2    10.239995681     4.576907229   0   0   0 # C
     87      1   1  0.000000     -2    10.239995681     3.156626190   0   0   0 # C
     88      1   1  0.000000     -2    11.469995142     1.026204632   0   0   0 # C
     89      1   1  0.000000     -2    11.469995142     2.446485671   0   0   0 # C
     90      1   1  0.000000     -2    10.239995681     0.316064113   0   0   0 # C
     91      1   1  0.000000     -2    13.929994062    18.069577099   0   0   0 # C
     92      1   1  0.000000     -2    12.699994602    17.359436579   0   0   0 # C
     93      1   1  0.000000     -2    12.699994602    15.939155540   0   0   0 # C
     94      1   1  0.000000     -2    13.929994062    13.808733982   0   0   0 # C
     95      1   1  0.000000     -2    13.929994062    15.229015021   0   0   0 # C
     96      1   1  0.000000     -2    12.699994602    13.098593462   0   0   0 # C
     97      1   1  0.000000     -2    12.699994602    11.678312424   0   0   0 # C
     98      1   1  0.000000     -2    13.929994062     9.547890865   0   0   0 # C
     99      1   1  0.000000     -2    13.929994062    10.968171904   0   0   0 # C
    100      1   1  0.000000     -2    12.699994602     8.837750346   0   0   0 # C
    101      1   1  0.000000     -2    12.699994602     7.417469307   0   0   0 # C
    102      1   1  0.000000     -2    13.929994062     5.287047749   0   0   0 # C
    103      1   1  0.000000     -2    13.929994062     6.707328788   0   0   0 # C
    104      1   1  0.000000     -2    12.699994602     4.576907229   0   0   0 # C
    105      1   1  0.000000     -2    12.699994602     3.156626190   0   0   0 # C
    106      1   1  0.000000     -2    13.929994062     1.026204632   0   0   0 # C
    107      1   1  0.000000     -2    13.929994062     2.446485671   0   0   0 # C
    108      1   1  0.000000     -2    12.699994602     0.316064113   0   0   0 # C
    109      1   1  0.000000     -2    16.389992982    18.069577099   0   0   0 # C
    110      1   1  0.000000     -2    15.159993522    17.359436579   0   0   0 # C
    111      1   1  0.000000     -2    15.159993522    15.939155540   0   0   0 # C
    112      1   1  0.000000     -2    16.389992982    13.808733982   0   0   0 # C
    113      1   1  0.000000     -2    16.389992982    15.229015021   0   0   0 # C
    114      1   1  0.000000     -2    15.159993522    13.098593462   0   0   0 # C
    115      1   1  0.000000     -2    15.159993522    11.678312424   0   0   0 # C
    116      1   1  0.000000     -2    16.389992982     9.547890865   0   0   0 # C
    117      1   1  0.000000     -2    16.389992982    10.968171904   0   0   0 # C
    118      1   1  0.000000     -2    15.159993522     8.837750346   0   0   0 # C
    119      1   1  0.000000     -2    15.159993522     7.417469307   0   0   0 # C
    120      1   1  0.000000     -2    16.389992982     5.287047749   0   0   0 # C
    121      1   1  0.000000     -2    16.389992982     6.707328788   0   0   0 # C
    122      1   1  0.000000     -2    15.159993522     4.576907229   0   0   0 # C
    123      1   1  0.000000     -2    15.159993522     3.156626190   0   0   0 # C
    124      1   1  0.000000     -2    16.389992982     1.026204632   0   0   0 # C
    125      1   1  0.000000     -2    16.389992982     2.446485671   0   0   0 # C
    126      1   1  0.000000     -2    15.159993522     0.316064113   0   0   0 # C
    127      1   1  0.000000     -2    18.849991903    18.069577099   0   0   0 # C
    128      1   1  0.000000     -2    17.619992443    17.359436579   0   0   0 # C
    129      1   1  0.000000     -2    17.619992443    15.939155540   0   0   0 # C
    130      1   1  0.000000     -2    18.849991903    13.808733982   0   0   0 # C
    131      1   1  0.000000     -2    18.849991903    15.229015021   0   0   0 # C
    132      1   1  0.000000     -2    17.619992443    13.098593462   0   0   0 # C
    133      1   1  0.000000     -2    17.619992443    11.678312424   0   0   0 # C
    134      1   1  0.000000     -2    18.849991903     9.547890865   0   0   0 # C
    135      1   1  0.000000     -2    18.849991903    10.968171904   0   0   0 # C
    136      1   1  0.000000     -2    17.619992443     8.837750346   0   0   0 # C
    137      1   1  0.000000     -2    17.619992443     7.417469307   0   0   0 # C
    138      1   1  0.000000     -2    18.849991903     5.287047749   0   0   0 # C
    139      1   1  0.000000     -2    18.849991903     6.707328788   0   0   0 # C
    140      1   1  0.000000     -2    17.619992443     4.576907229   0   0   0 # C
    141      1   1  0.000000     -2    17.619992443     3.156626190   0   0   0 # C
    142      1   1  0.000000     -2    18.849991903     1.026204632   0   0   0 # C
    143      1   1  0.000000     -2    18.849991903     2.446485671   0   0   0 # C
    144      1   1  0.000000     -2    17.619992443     0.316064113   0   0   0 # C
    145      1   1  0.000000     -2    21.309990823    18.069577099   0   0   0 # C
    146      1   1  0.000000     -2    20.079991363    17.359436579   0   0   0 # C
    147      1   1  0.000000     -2    20.079991363    15.939155540   0   0   0 # C
    148      1   1  0.000000     -2    21.309990823    13.808733982   0   0   0 # C
    149      1   1  0.000000     -2    21.309990823    15.229015021   0   0   0 # C
    150      1   1  0.000000     -2    20.079991363    13.098593462   0   0   0 # C
    151      1   1  0.000000     -2    20.079991363    11.678312424   0   0   0 # C
    152      1   1  0.000000     -2    21.309990823     9.547890865   0   0   0 # C
    153      1   1  0.000000     -2    21.309990823    10.968171904   0   0   0 # C
    154      1   1  0.000000     -2    20.079991363     8.837750346   0   0   0 # C
    155      1   1  0.000000     -2    20.079991363     7.417469307   0   0   0 # C
    156      1   1  0.000000     -2    21.309990823     5.287047749   0   0   0 # C
    157      1   1  0.000000     -2    21.309990823     6.707328788   0   0   0 # C
    158      1   1  0.000000     -2    20.079991363     4.576907229   0   0   0 # C
    159      1   1  0.000000     -2    20.079991363     3.156626190   0   0   0 # C
    160      1   1  0.000000     -2    21.309990823     1.026204632   0   0   0 # C
    161      1   1  0.000000     -2    21.309990823     2.446485671   0   0   0 # C
    162      1   1  0.000000     -2    20.079991363     0.316064113   0   0   0 # C
    163      1   1  0.000000     -2    23.769989743    18.069577099   0   0   0 # C
    164      1   1  0.000000     -2    22.539990283    17.359436579   0   0   0 # C
    165      1   1  0.000000     -2    22.539990283    15.939155540   0   0   0 # C
    166      1   1  0.000000     -2    23.769989743    13.808733982   0   0   0 # C
    167      1   1  0.000000     -2    23.769989743    15.229015021   0   0   0 # C
    168      1   1  0.000000     -2    22.539990283    13.098593462   0   0   0 # C
    169      1   1  0.000000     -2    22.539990283    11.678312424   0   0   0 # C
    170      1   1  0.000000     -2    23.769989743     9.547890865   0   0   0 # C
    171      1   1  0.000000     -2    23.769989743    10.968171904   0   0   0 # C
    172      1   1  0.000000     -2    22.539990283     8.837750346   0   0   0 # C
    173      1   1  0.000000     -2    22.539990283     7.417469307   0   0   0 # C
    174      1   1  0.000000     -2    23.769989743     5.287047749   0   0   0 # C
    175      1   1  0.000000     -2    23.769989743     6.707328788   0   0   0 # C
    176      1   1  0.000000     -2    22.539990283     4.576907229   0   0   0 # C
    177      1   1  0.000000     -2    22.539990283     3.156626190   0   0   0 # C
    178      1   1  0.000000     -2    23.769989743     1.026204632   0   0   0 # C
    179      1   1  0.000000     -2    23.769989743     2.446485671   0   0   0 # C
    180      1   1  0.000000     -2    22.539990283     0.316064113   0   0   0 # C
    181      1   1  0.000000     -2    26.229988664    18.069577099   0   0   0 # C
    182      1   1  0.000000     -2    24.999989204    17.359436579   0   0   0 # C
    183      1   1  0.000000     -2    24.999989204    15.939155540   0   0   0 # C
    184      1   1  0.000000     -2    26.229988664    13.808733982   0   0   0 # C
    185      1   1  0.000000     -2    26.229988664    15.229015021   0   0   0 # C
    186      1   1  0.000000     -2    24.999989204    13.098593462   0   0   0 # C
    187      1   1  0.000000     -2    24.999989204    11.678312424   0   0   0 # C
    188      1   1  0.000000     -2    26.229988664     9.547890865   0   0   0 # C
    189      1   1  0.000000     -2    26.229988664    10.968171904   0   0   0 # C
    190      1   1  0.000000     -2    24.999989204     8.837750346   0   0   0 # C
    191      1   1  0.000000     -2    24.999989204     7.417469307   0   0   0 # C
    192      1   1  0.000000     -2    26.229988664     5.287047749   0   0   0 # C
    193      1   1  0.000000     -2    26.229988664     6.707328788   0   0   0 # C
    194      1   1  0.000000     -2    24.999989204     4.576907229   0   0   0 # C
    195      1   1  0.000000     -2    24.999989204     3.156626190   0   0   0 # C
    196      1   1  0.000000     -2    26.229988664     1.026204632   0   0   0 # C
    197      1   1  0.000000     -2    26.229988664     2.446485671   0   0   0 # C
    198      1   1  0.000000     -2    24.999989204     0.316064113   0   0   0 # C
    199      1   1  0.000000     -2    28.689987584    18.069577099   0   0   0 # C
    200      1   1  0.000000     -2    27.459988124    17.359436579   0   0   0 # C
    201      1   1  0.000000     -2    27.459988124    15.939155540   0   0   0 # C
    202      1   1  0.000000     -2    28.689987584    13.808733982   0   0   0 # C
    203      1   1  0.000000     -2    28.689987584    15.229015021   0   0   0 # C
    204      1   1  0.000000     -2    27.459988124    13.098593462   0   0   0 # C
    205      1   1  0.000000     -2    27.459988124    11.678312424   0   0   0 # C
    206      1   1  0.000000     -2    28.689987584     9.547890865   0   0   0 # C
    207      1   1  0.000000     -2    28.689987584    10.968171904   0   0   0 # C
    208      1   1  0.000000     -2    27.459988124     8.837750346   0   0   0 # C
    209      1   1  0.000000     -2    27.459988124     7.417469307   0   0   0 # C
    210      1   1  0.000000     -2    28.689987584     5.287047749   0   0   0 # C
    211      1   1  0.000000     -2    28.689987584     6.707328788   0   0   0 # C
    212      1   1  0.000000     -2    27.459988124     4.576907229   0   0   0 # C
    213      1   1  0.000000     -2    27.459988124     3.156626190   0   0   0 # C
    214      1   1  0.000000     -2    28.689987584     1.026204632   0   0   0 # C
    215      1   1  0.000000     -2    28.689987584     2.446485671   0   0   0 # C
    216      1   1  0.000000     -2    27.459988124     0.316064113   0   0   0 # C
    217      1   1  0.000000     -2    31.149986505    18.069577099   0   0   0 # C
    218      1   1  0.000000     -2    29.919987044    17.359436579   0   0   0 # C
    219      1   1  0.000000     -2    29.919987044    15.939155540   0   0   0 # C
    220      1   1  0.000000     -2    31.149986505    13.808733982   0   0   0 # C
    221      1   1  0.000000     -2    31.149986505    15.229015021   0   0   0 # C
    222      1   1  0.000000     -2    29.919987044    13.098593462   0   0   0 # C
    223      1   1  0.000000     -2    29.919987044    11.678312424   0   0   0 # C
    224      1   1  0.000000     -2    31.149986505     9.547890865   0   0   0 # C
    225      1   1  0.000000     -2    31.149986505    10.968171904   0   0   0 # C
    226      1   1  0.000000     -2    29.919987044     8.837750346   0   0   0 # C
    227      1   1  0.000000     -2    29.919987044     7.417469307   0   0   0 # C
    228      1   1  0.000000     -2    31.149986505     5.287047749   0   0   0 # C
    229      1   1  0.000000     -2    31.149986505     6.707328788   0   0   0 # C
    230      1   1  0.000000     -2    29.919987044     4.576907229   0   0   0 # C
    231      1   1  0.000000     -2    29.919987044     3.156626190   0   0   0 # C
    232      1   1  0.000000     -2    31.149986505     1.026204632   0   0   0 # C
    233      1   1  0.000000     -2    31.149986505     2.446485671   0   0   0 # C
    234      1   1  0.000000     -2    29.919987044     0.316064113   0   0   0 # C
    235      1   1  0.000000     -2    33.609985425    18.069577099   0   0   0 # C
    236      1   1  0.000000     -2    32.379985965    17.359436579   0   0   0 # C
    237      1   1  0.000000     -2    32.379985965    15.939155540   0   0   0 # C
    238      1   1  0.000000     -2    33.609985425    13.808733982   0   0   0 # C
    239      1   1  0.000000     -2    33.609985425    15.229015021   0   0   0 # C
    240      1   1  0.000000     -2    32.379985965    13.098593462   0   0   0 # C
    241      1   1  0.000000     -2    32.379985965    11.678312424   0   0   0 # C
    242      1   1  0.000000     -2    33.609985425     9.547890865   0   0   0 # C
    243      1   1  0.000000     -2    33.609985425    10.968171904   0   0   0 # C
    244      1   1  0.000000     -2    32.379985965     8.837750346   0   0   0 # C
    245      1   1  0.000000     -2    32.379985965     7.417469307   0   0   0 # C
    246      1   1  0.000000     -2    33.609985425     5.287047749   0   0   0 # C
    247      1   1  0.000000     -2    33.609985425     6.707328788   0   0   0 # C
    248      1   1  0.000000     -2    32.379985965     4.576907229   0   0   0 # C
    249      1   1  0.000000     -2    32.379985965     3.156626190   0   0   0 # C
    250      1   1  0.000000     -2    33.609985425     1.026204632   0   0   0 # C
    251      1   1  0.000000     -2    33.609985425     2.446485671   0   0   0 # C
    252      1   1  0.000000     -2    32.379985965     0.316064113   0   0   0 # C
    253      1   1  0.000000     -2    36.069984345    18.069577099   0   0   0 # C
    254      1   1  0.000000     -2    34.839984885    17.359436579   0   0   0 # C
    255      1   1  0.000000     -2    34.839984885    15.939155540   0   0   0 # C
    256      1   1  0.000000     -2    36.069984345    13.808733982   0   0   0 # C
    257      1   1  0.000000     -2    36.069984345    15.229015021   0   0   0 # C
    258      1   1  0.000000     -2    34.839984885    13.098593462   0   0   0 # C
    259      1   1  0.000000     -2    34.839984885    11.678312424   0   0   0 # C
    260      1   1  0.000000     -2    36.069984345     9.547890865   0   0   0 # C
    261      1   1  0.000000     -2    36.069984345    10.968171904   0   0   0 # C
    262      1   1  0.000000     -2    34.839984885     8.837750346   0   0   0 # C
    263      1   1  0.000000     -2    34.839984885     7.417469307   0   0   0 # C
    264      1   1  0.000000     -2    36.069984345     5.287047749   0   0   0 # C
    265      1   1  0.000000     -2    36.069984345     6.707328788   0   0   0 # C
    266      1   1  0.000000     -2    34.839984885     4.576907229   0   0   0 # C
    267      1   1  0.000000     -2    34.839984885     3.156626190   0   0   0 # C
    268      1   1  0.000000     -2    36.069984345     1.026204632   0   0   0 # C
    269      1   1  0.000000     -2    36.069984345     2.446485671   0   0   0 # C
    270      1   1  0.000000     -2    34.839984885     0.316064113   0   0   0 # C
    271      1   1  0.000000     -2    38.529983266    18.069577099   0   0   0 # C
    272      1   1  0.000000     -2    37.299983805    17.359436579   0   0   0 # C
    273      1   1  0.000000     -2    37.299983805    15.939155540   0   0   0 # C
    274      1   1  0.000000     -2    38.529983266    13.808733982   0   0   0 # C
    275      1   1  0.000000     -2    38.529983266    15.229015021   0   0   0 # C
    276      1   1  0.000000     -2    37.299983805    13.098593462   0   0   0 # C
    277      1   1  0.000000     -2    37.299983805    11.678312424   0   0   0 # C
    278      1   1  0.000000     -2    38.529983266     9.547890865   0   0   0 # C
    279      1   1  0.000000     -2    38.529983266    10.968171904   0   0   0 # C
    280      1   1  0.000000     -2    37.299983805     8.837750346   0   0   0 # C
    281      1   1  0.000000     -2    37.299983805     7.417469307   0   0   0 # C
    282      1   1  0.000000     -2    38.529983266     5.287047749   0   0   0 # C
    283      1   1  0.000000     -2    38.529983266     6.707328788   0   0   0 # C
    284      1   1  0.000000     -2    37.299983805     4.576907229   0   0   0 # C
    285      1   1  0.000000     -2    37.299983805     3.156626190   0   0   0 # C
    286      1   1  0.000000     -2    38.529983266     1.026204632   0   0   0 # C
    287      1   1  0.000000     -2    38.529983266     2.446485671   0   0   0 # C
    288      1   1  0.000000     -2    37.299983805     0.316064113   0   0   0 # C
    289      1   1  0.000000     -2     0.400000000    54.799998657   0   0   0 # C
    290      1   1  0.000000     -2     1.629999460    52.669577099   0   0   0 # C
    291      1   1  0.000000     -2     1.629999460    54.089858137   0   0   0 # C
    292      1   1  0.000000     -2     0.400000000    51.959436579   0   0   0 # C
    293      1   1  0.000000     -2     0.400000000    50.539155540   0   0   0 # C
    294      1   1  0.000000     -2     1.629999460    48.408733982   0   0   0 # C
    295      1   1  0.000000     -2     1.629999460    49.829015021   0   0   0 # C
    296      1   1  0.000000     -2     0.400000000    47.698593462   0   0   0 # C
    297      1   1  0.000000     -2     0.400000000    46.278312424   0   0   0 # C
    298      1   1  0.000000     -2     1.629999460    44.147890865   0   0   0 # C
    299      1   1  0.000000     -2     1.629999460    45.568171904   0   0   0 # C
    300      1   1  0.000000     -2     0.400000000    43.437750346   0   0   0 # C
    301      1   1  0.000000     -2     0.400000000    42.017469307   0   0   0 # C
    302      1   1  0.000000     -2     1.629999460    39.887047749   0   0   0 # C
    303      1   1  0.000000     -2     1.629999460    41.307328788   0   0   0 # C
    304      1   1  0.000000     -2     0.400000000    39.176907229   0   0   0 # C
    305      1   1  0.000000     -2     0.400000000    37.756626190   0   0   0 # C
    306      1   1  0.000000     -2     1.629999460    37.046485671   0   0   0 # C
    307      1   1  0.000000     -2     2.859998920    54.799998657   0   0   0 # C
    308      1   1  0.000000     -2     4.089998381    52.669577099   0   0   0 # C
    309      1   1  0.000000     -2     4.089998381    54.089858137   0   0   0 # C
    310      1   1  0.000000     -2     2.859998920    51.959436579   0   0   0 # C
    311      1   1  0.000000     -2     2.859998920    50.539155540   0   0   0 # C
    312      1   1  0.000000     -2     4.089998381    48.408733982   0   0   0 # C
    313      1   1  0.000000     -2     4.089998381    49.829015021   0   0   0 # C
    314      1   1  0.000000     -2     2.859998920    47.698593462   0   0   0 # C
    315      1   1  0.000000     -2     2.859998920    46.278312424   0   0   0 # C
    316      1   1  0.000000     -2     4.089998381    44.147890865   0   0   0 # C
    317      1   1  0.000000     -2     4.089998381    45.568171904   0   0   0 # C
    318      1   1  0.000000     -2     2.859998920    43.437750346   0   0   0 # C
    319      1   1  0.000000     -2     2.859998920    42.017469307   0   0   0 # C
    320      1   1  0.000000     -2     4.089998381    39.887047749   0   0   0 # C
    321      1   1  0.000000     -2     4.089998381    41.307328788   0   0   0 # C
    322      1   1  0.000000     -2     2.859998920    39.176907229   0   0   0 # C
    323      1   1  0.000000     -2     2.859998920    37.756626190   0   0   0 # C
    324      1   1  0.000000     -2     4.089998381    37.046485671   0   0   0 # C
    325      1   1  0.000000     -2     5.319997841    54.799998657   0   0   0 # C
    326      1   1  0.000000     -2     6.549997301    52.669577099   0   0   0 # C
    327      1   1  0.000000     -2     6.549997301    54.089858137   0   0   0 # C
    328      1   1  0.000000     -2     5.319997841    51.959436579   0   0   0 # C
    329      1   1  0.000000     -2     5.319997841    50.539155540   0   0   0 # C
    330      1   1  0.000000     -2     6.549997301    48.408733982   0   0   0 # C
    331      1   1  0.000000     -2     6.549997301    49.829015021   0   0   0 # C
    332      1   1  0.000000     -2     5.319997841    47.698593462   0   0   0 # C
    333      1   1  0.000000     -2     5.319997841    46.278312424   0   0   0 # C
    334      1   1  0.000000     -2     6.549997301    44.147890865   0   0   0 # C
    335      1   1  0.000000     -2     6.549997301    45.568171904   0   0   0 # C
    336      1   1  0.000000     -2     5.319997841    43.437750346   0   0   0 # C
    337      1   1  0.000000     -2     5.319997841    42.017469307   0   0   0 # C
    338      1   1  0.000000     -2     6.549997301    39.887047749   0   0   0 # C
    339      1   1  0.000000     -2     6.549997301    41.307328788   0   0   0 # C
    340      1   1  0.000000     -2     5.319997841    39.176907229   0   0   0 # C
    341      1   1  0.000000     -2     5.319997841    37.756626190   0   0   0 # C
    342      1   1  0.000000     -2     6.549997301    37.046485671   0   0   0 # C
    343      1   1  0.000000     -2     7.779996761    54.799998657   0   0   0 # C
    344      1   1  0.000000     -2     9.009996221    52.669577099   0   0   0 # C
    345      1   1  0.000000     -2     9.009996221    54.089858137   0   0   0 # C
    346      1   1  0.000000     -2     7.779996761    51.959436579   0   0   0 # C
    347      1   1  0.000000     -2     7.779996761    50.539155540   0   0   0 # C