LAMMPS data file via write_data, version 29 Aug 2024, timestep = 0, units = real

38166 atoms
17 atom types
20250 bonds
7 bond types
10460 angles
9 angle types
620 dihedrals
9 dihedral types
10 impropers
1 improper types

-120 145 xlo xhi
-0.000343742 38.954656258 ylo yhi
0.16404715 55.16404715 zlo zhi

Masses

1 15.9994
2 1.008
3 12.011
4 12.011
5 12.011
6 12.011
7 18.9984
8 15.9994
9 15.9994
10 1.008
11 47.9
12 47.9
13 15.999
14 106.4
15 12.0107
16 12.0107
17 12.0107

Pair Coeffs # lj/cut/coul/long

1 0.1554 3.16557
2 0 0
3 0.066 3.5
4 0.066 3.5
5 0.066 3.5
6 0.105 3.75
7 0.053 2.95
8 0.17 3
9 0.21 2.96
10 0 0
11 0.6087 1.9565
12 0.6087 1.9565
13 0.1554 3.1655
14 9.839 2.52
15 0.0663 3.5812
16 0.0663 3.5812
17 0.0663 3.5812

Bond Coeffs # harmonic

1 412.285 1
2 268 1.53
3 367 1.33
4 317 1.52
5 450 1.36
6 570 1.23
7 553 0.95

Angle Coeffs # harmonic

1 45.7696 109.47
2 50 109.5
3 77 109.1
4 58.3501 112.7
5 63 111.1
6 70 108
7 80 120.4
8 80 121
9 35 113

Dihedral Coeffs # opls

1 0.299833 0 0.399976 0
2 -2.5 0 0 0
3 1.29995 -0.049952 0.200048 0
4 -1.6973 -0.456023 0.584967 0
5 -2.05975 -0.313098 0.31501 0
6 1.00024 0.545889 0.450048 0
7 0 0.545889 0 0
8 1.5 5.5 0 0
9 0 5.5 0 0

Improper Coeffs # cvff

1 10.5 -1 2

Atoms # full

1 1 1 -0.8476 -98.432 32.353 44.896 0 0 0
2 1 2 0.4238 -97.551 32.516 45.266 0 0 0
3 1 2 0.4238 -99.009 32.306 45.672 0 0 0
4 2 1 -0.8476 -51.519 2.574 27.449 0 0 0
5 2 2 0.4238 -51.208 3.462 27.22 0 0 0
6 2 2 0.4238 -51.143 2.007 26.76 0 0 0
7 3 1 -0.8476 -74.508 27.543 24.336 0 0 0
8 3 2 0.4238 -75.278 27.639 24.916 0 0 0
9 3 2 0.4238 -74.76 28.015 23.529 0 0 0
10 4 1 -0.8476 -44.701 23.767 8.641 0 0 0
11 4 2 0.4238 -45.668 23.812 8.69 0 0 0
12 4 2 0.4238 -44.435 23.474 9.525 0 0 0
13 5 1 -0.8476 -76.645 14.297 3.836 0 0 0
14 5 2 0.4238 -76.391 15.044 4.399 0 0 0
15 5 2 0.4238 -76.669 13.543 4.443 0 0 0
16 6 1 -0.8476 -9.158 38.206 22.567 0 0 0
17 6 2 0.4238 -9.984 38.5 22.155 0 0 0
18 6 2 0.4238 -9.267 38.437 23.501 0 0 0
19 7 1 -0.8476 -88.147 7.209 6.598 0 0 0
20 7 2 0.4238 -87.234 7.433 6.366 0 0 0
21 7 2 0.4238 -88.438 6.63 5.878 0 0 0
22 8 1 -0.8476 -89.595 19.538 52.318 0 0 0
23 8 2 0.4238 -89.262 18.629 52.362 0 0 0
24 8 2 0.4238 -89.466 19.879 53.215 0 0 0
25 9 1 -0.8476 -53.394 7.963 50.217 0 0 0
26 9 2 0.4238 -53.113 8.519 49.475 0 0 0
27 9 2 0.4238 -53.072 8.433 50.999 0 0 0
28 10 1 -0.8476 -57.24 24.604 2.412 0 0 0
29 10 2 0.4238 -56.72 25.275 2.879 0 0 0
30 10 2 0.4238 -57.463 25.025 1.568 0 0 0
31 11 1 -0.8476 -54.628 25.126 27.409 0 0 0
32 11 2 0.4238 -53.819 25.246 27.929 0 0 0
33 11 2 0.4238 -55.239 25.784 27.771 0 0 0
34 12 1 -0.8476 -70.239 22.111 33.946 0 0 0
35 12 2 0.4238 -69.589 22.826 33.884 0 0 0
36 12 2 0.4238 -70.893 22.328 33.266 0 0 0
37 13 1 -0.8476 -84.047 20.573 36.929 0 0 0
38 13 2 0.4238 -84.728 20.966 36.361 0 0 0
39 13 2 0.4238 -83.446 20.137 36.308 0 0 0
40 14 1 -0.8476 -6.709 37.716 17.548 0 0 0
41 14 2 0.4238 -7.039 37.112 16.866 0 0 0
42 14 2 0.4238 -6.184 38.363 17.054 0 0 0
43 15 1 -0.8476 -35.997 19.721 43.236 0 0 0
44 15 2 0.4238 -36.054 20.688 43.228 0 0 0
45 15 2 0.4238 -35.481 19.51 42.444 0 0 0
46 16 1 -0.8476 -48 17.235 10.734 0 0 0
47 16 2 0.4238 -48.545 16.964 11.487 0 0 0
48 16 2 0.4238 -47.314 16.553 10.681 0 0 0
49 17 1 -0.8476 -92.852 24.472 50.086 0 0 0
50 17 2 0.4238 -92.251 24.964 49.507 0 0 0
51 17 2 0.4238 -93.707 24.522 49.634 0 0 0
52 18 1 -0.8476 -7.632 29.231 25.628 0 0 0
53 18 2 0.4238 -7.164 28.45 25.961 0 0 0
54 18 2 0.4238 -7.578 29.866 26.357 0 0 0
55 19 1 -0.8476 -92.195 24.193 19.503 0 0 0
56 19 2 0.4238 -91.522 23.551 19.777 0 0 0
57 19 2 0.4238 -92.431 24.649 20.324 0 0 0
58 20 1 -0.8476 -64.927 20.873 52.848 0 0 0
59 20 2 0.4238 -65.85 20.958 52.567 0 0 0
60 20 2 0.4238 -64.717 21.738 53.23 0 0 0
61 21 1 -0.8476 -56.561 17.922 22.275 0 0 0
62 21 2 0.4238 -56.337 18.665 21.696 0 0 0
63 21 2 0.4238 -56.19 18.173 23.134 0 0 0
64 22 1 -0.8476 -45.833 21.657 37.053 0 0 0
65 22 2 0.4238 -44.941 21.933 36.797 0 0 0
66 22 2 0.4238 -46.382 21.902 36.294 0 0 0
67 23 1 -0.8476 -27.621 28.197 47.24 0 0 0
68 23 2 0.4238 -28.194 27.831 47.93 0 0 0
69 23 2 0.4238 -26.731 28.139 47.618 0 0 0
70 24 1 -0.8476 -12.882 11.457 8.217 0 0 0
71 24 2 0.4238 -13.793 11.129 8.258 0 0 0
72 24 2 0.4238 -12.71 11.556 7.269 0 0 0
73 25 1 -0.8476 -17.711 6.512 21.773 0 0 0
74 25 2 0.4238 -18.175 5.683 21.582 0 0 0
75 25 2 0.4238 -17.029 6.258 22.411 0 0 0
76 26 1 -0.8476 -41.889 35.427 36.009 0 0 0
77 26 2 0.4238 -42.58 34.796 36.263 0 0 0
78 26 2 0.4238 -41.699 35.908 36.828 0 0 0
79 27 1 -0.8476 -17.895 12.034 16.717 0 0 0
80 27 2 0.4238 -18.852 12.034 16.869 0 0 0
81 27 2 0.4238 -17.521 11.766 17.569 0 0 0
82 28 1 -0.8476 -57.893 24.132 47.292 0 0 0
83 28 2 0.4238 -58.225 25.026 47.466 0 0 0
84 28 2 0.4238 -57.957 24.041 46.33 0 0 0
85 29 1 -0.8476 -36.249 14.014 46.423 0 0 0
86 29 2 0.4238 -35.776 14.168 47.254 0 0 0
87 29 2 0.4238 -37.15 13.798 46.701 0 0 0
88 30 1 -0.8476 -48.759 13.88 13.075 0 0 0
89 30 2 0.4238 -48.083 14.575 13.073 0 0 0
90 30 2 0.4238 -48.259 13.066 13.231 0 0 0
91 31 1 -0.8476 -54.784 37.297 20.367 0 0 0
92 31 2 0.4238 -54.768 37.996 21.038 0 0 0
93 31 2 0.4238 -55.052 36.507 20.857 0 0 0
94 32 1 -0.8476 -69.688 7.901 19.485 0 0 0
95 32 2 0.4238 -70.587 7.752 19.814 0 0 0
96 32 2 0.4238 -69.819 8.302 18.614 0 0 0
97 33 1 -0.8476 -33.511 15.04 48.784 0 0 0
98 33 2 0.4238 -33.509 14.498 49.587 0 0 0
99 33 2 0.4238 -33.752 14.419 48.081 0 0 0
100 34 1 -0.8476 -41.27 23.435 4.539 0 0 0
101 34 2 0.4238 -41.526 24.351 4.354 0 0 0
102 34 2 0.4238 -42.11 22.952 4.54 0 0 0
103 35 1 -0.8476 -81.787 30.273 34.917 0 0 0
104 35 2 0.4238 -82.291 30.294 35.745 0 0 0
105 35 2 0.4238 -81.821 31.187 34.598 0 0 0
106 36 1 -0.8476 -36.337 17.056 49.296 0 0 0
107 36 2 0.4238 -35.693 16.645 49.891 0 0 0
108 36 2 0.4238 -36.14 18.002 49.353 0 0 0
109 37 1 -0.8476 -45.902 9.862 3.003 0 0 0
110 37 2 0.4238 -44.972 9.631 2.858 0 0 0
111 37 2 0.4238 -46.326 9.677 2.152 0 0 0
112 38 1 -0.8476 -69.658 22.418 47.286 0 0 0
113 38 2 0.4238 -69.368 22.354 48.209 0 0 0
114 38 2 0.4238 -70.583 22.133 47.311 0 0 0
115 39 1 -0.8476 -26.609 28.7 33.156 0 0 0
116 39 2 0.4238 -26.677 27.906 32.604 0 0 0
117 39 2 0.4238 -26.843 29.423 32.556 0 0 0
118 40 1 -0.8476 -57.105 12.874 19.298 0 0 0
119 40 2 0.4238 -57.255 13.315 20.148 0 0 0
120 40 2 0.4238 -56.618 13.528 18.776 0 0 0
121 41 1 -0.8476 -11.095 24.386 19.872 0 0 0
122 41 2 0.4238 -10.234 24.83 19.868 0 0 0
123 41 2 0.4238 -10.886 23.465 19.661 0 0 0
124 42 1 -0.8476 -93.383 7.658 2.204 0 0 0
125 42 2 0.4238 -93.824 6.795 2.183 0 0 0
126 42 2 0.4238 -92.446 7.447 2.079 0 0 0
127 43 1 -0.8476 -54.119 3.203 13.626 0 0 0
128 43 2 0.4238 -53.906 2.399 14.123 0 0 0
129 43 2 0.4238 -53.71 3.059 12.76 0 0 0
130 44 1 -0.8476 -29.644 16.212 21.809 0 0 0
131 44 2 0.4238 -29.322 16.249 22.722 0 0 0
132 44 2 0.4238 -30.13 17.042 21.697 0 0 0
133 45 1 -0.8476 -72.342 19.229 26.034 0 0 0
134 45 2 0.4238 -72.457 20.169 26.242 0 0 0
135 45 2 0.4238 -71.422 19.164 25.739 0 0 0
136 46 1 -0.8476 -40.568 26.037 37.594 0 0 0
137 46 2 0.4238 -40.564 25.355 36.906 0 0 0
138 46 2 0.4238 -40.981 26.801 37.165 0 0 0
139 47 1 -0.8476 -69.802 25.616 28.822 0 0 0
140 47 2 0.4238 -70.231 26.43 29.123 0 0 0
141 47 2 0.4238 -69.452 25.844 27.948 0 0 0
142 48 1 -0.8476 -57.045 31.841 16.854 0 0 0
143 48 2 0.4238 -56.513 32.554 17.237 0 0 0
144 48 2 0.4238 -57.592 31.533 17.591 0 0 0
145 49 1 -0.8476 -93.409 11.625 20.851 0 0 0
146 49 2 0.4238 -92.556 11.167 20.81 0 0 0
147 49 2 0.4238 -93.802 11.467 19.98 0 0 0
148 50 1 -0.8476 -51.34 13.493 15.895 0 0 0
149 50 2 0.4238 -51.926 14.214 16.17 0 0 0
150 50 2 0.4238 -50.892 13.841 15.11 0 0 0
151 51 1 -0.8476 -11.328 22.257 10.444 0 0 0
152 51 2 0.4238 -11.461 22.023 11.375 0 0 0
153 51 2 0.4238 -12.151 21.985 10.013 0 0 0
154 52 1 -0.8476 -73.31 2.035 45.176 0 0 0
155 52 2 0.4238 -73.932 2.523 44.616 0 0 0
156 52 2 0.4238 -73.644 1.126 45.16 0 0 0
157 53 1 -0.8476 -14.822 17.974 52.425 0 0 0
158 53 2 0.4238 -15.228 18.217 53.271 0 0 0
159 53 2 0.4238 -15.475 18.248 51.764 0 0 0
160 54 1 -0.8476 -31.738 13.427 6.199 0 0 0
161 54 2 0.4238 -30.919 13.399 5.681 0 0 0
162 54 2 0.4238 -31.546 14.058 6.908 0 0 0
163 55 1 -0.8476 -24.309 30.209 6.05 0 0 0
164 55 2 0.4238 -23.96 29.432 6.512 0 0 0
165 55 2 0.4238 -24.134 30.026 5.116 0 0 0
166 56 1 -0.8476 -58.026 24.682 15.25 0 0 0
167 56 2 0.4238 -58.262 23.878 14.764 0 0 0
168 56 2 0.4238 -57.263 24.419 15.785 0 0 0
169 57 1 -0.8476 -5.777 29.747 46.03 0 0 0
170 57 2 0.4238 -6.16 30.265 46.754 0 0 0
171 57 2 0.4238 -5.001 29.326 46.426 0 0 0
172 58 1 -0.8476 -18.69 7.989 10.698 0 0 0
173 58 2 0.4238 -17.857 8.003 10.203 0 0 0
174 58 2 0.4238 -19.28 8.557 10.182 0 0 0
175 59 1 -0.8476 -71.906 23.984 12.882 0 0 0
176 59 2 0.4238 -72.303 23.103 12.803 0 0 0
177 59 2 0.4238 -71.69 24.226 11.969 0 0 0
178 60 1 -0.8476 -96.351 16.94 7.355 0 0 0
179 60 2 0.4238 -96.655 17.268 6.495 0 0 0
180 60 2 0.4238 -95.438 16.662 7.192 0 0 0
181 61 1 -0.8476 -29.23 4.662 42.629 0 0 0
182 61 2 0.4238 -30.09 5.065 42.434 0 0 0
183 61 2 0.4238 -28.788 4.624 41.768 0 0 0
184 62 1 -0.8476 -84.475 27.612 26.697 0 0 0
185 62 2 0.4238 -85.003 27.955 25.96 0 0 0
186 62 2 0.4238 -83.81 27.054 26.27 0 0 0
187 63 1 -0.8476 -9.061 9.555 10.062 0 0 0
188 63 2 0.4238 -9.923 9.967 10.221 0 0 0
189 63 2 0.4238 -8.773 9.266 10.941 0 0 0
190 64 1 -0.8476 -21.799 37.25 45.363 0 0 0
191 64 2 0.4238 -20.96 36.781 45.242 0 0 0
192 64 2 0.4238 -21.55 38.186 45.344 0 0 0
193 65 1 -0.8476 -7.239 28.699 17.927 0 0 0
194 65 2 0.4238 -6.279 28.573 17.887 0 0 0
195 65 2 0.4238 -7.493 28.3 18.772 0 0 0
196 66 1 -0.8476 -10.885 0.873 51.241 0 0 0
197 66 2 0.4238 -9.955 0.602 51.265 0 0 0
198 66 2 0.4238 -11.154 0.707 50.326 0 0 0
199 67 1 -0.8476 -14.949 26.853 34.228 0 0 0
200 67 2 0.4238 -14.178 26.329 34.494 0 0 0
201 67 2 0.4238 -15.087 27.461 34.969 0 0 0
202 68 1 -0.8476 -60.925 24.463 19.2 0 0 0
203 68 2 0.4238 -61.524 23.708 19.097 0 0 0
204 68 2 0.4238 -60.304 24.179 19.886 0 0 0
205 69 1 -0.8476 -86.526 10.096 42.176 0 0 0
206 69 2 0.4238 -86.732 11.028 42.008 0 0 0
207 69 2 0.4238 -86.618 9.675 41.309 0 0 0
208 70 1 -0.8476 -19.623 25.566 52.572 0 0 0
209 70 2 0.4238 -20 26.212 53.189 0 0 0
210 70 2 0.4238 -18.667 25.705 52.643 0 0 0
211 71 1 -0.8476 -92.855 1.26 47.828 0 0 0
212 71 2 0.4238 -92.322 0.456 47.915 0 0 0
213 71 2 0.4238 -92.63 1.778 48.615 0 0 0
214 72 1 -0.8476 -32.657 20.923 49.932 0 0 0
215 72 2 0.4238 -33.263 21.502 49.447 0 0 0
216 72 2 0.4238 -31.855 20.914 49.388 0 0 0
217 73 1 -0.8476 -76.062 18.172 54.325 0 0 0
218 73 2 0.4238 -76.492 17.616 54.992 0 0 0
219 73 2 0.4238 -76.144 19.07 54.68 0 0 0
220 74 1 -0.8476 -50.485 11.42 28.295 0 0 0
221 74 2 0.4238 -51.299 11.63 28.777 0 0 0
222 74 2 0.4238 -49.957 12.229 28.362 0 0 0
223 75 1 -0.8476 -78.746 25.557 39.695 0 0 0
224 75 2 0.4238 -79.529 26.108 39.844 0 0 0
225 75 2 0.4238 -78.141 25.811 40.407 0 0 0
226 76 1 -0.8476 -5.926 9.555 1.092 0 0 0
227 76 2 0.4238 -6.636 8.916 0.926 0 0 0
228 76 2 0.4238 -5.301 9.071 1.651 0 0 0
229 77 1 -0.8476 -80.111 24.334 11.182 0 0 0
230 77 2 0.4238 -79.422 24.015 11.784 0 0 0
231 77 2 0.4238 -79.699 24.288 10.307 0 0 0
232 78 1 -0.8476 -37.648 8.591 8.549 0 0 0
233 78 2 0.4238 -38.316 7.9 8.676 0 0 0
234 78 2 0.4238 -38.086 9.4 8.85 0 0 0
235 79 1 -0.8476 -9.615 33.781 24.964 0 0 0
236 79 2 0.4238 -10.243 33.893 25.694 0 0 0
237 79 2 0.4238 -8.759 34.012 25.352 0 0 0
238 80 1 -0.8476 -68.211 24.151 20.032 0 0 0
239 80 2 0.4238 -68.193 24.665 19.21 0 0 0
240 80 2 0.4238 -69.054 23.675 19.992 0 0 0
241 81 1 -0.8476 -34.148 15.115 11.757 0 0 0
242 81 2 0.4238 -35.087 14.876 11.742 0 0 0
243 81 2 0.4238 -33.974 15.439 10.861 0 0 0
244 82 1 -0.8476 -69.746 33.529 1.212 0 0 0
245 82 2 0.4238 -69.325 34.401 1.242 0 0 0
246 82 2 0.4238 -69.539 33.199 0.325 0 0 0
247 83 1 -0.8476 -38.124 7.19 50.424 0 0 0
248 83 2 0.4238 -37.629 6.963 51.225 0 0 0
249 83 2 0.4238 -37.447 7.24 49.734 0 0 0
250 84 1 -0.8476 -82.194 0.614 46.295 0 0 0
251 84 2 0.4238 -82.834 0.124 45.756 0 0 0
252 84 2 0.4238 -81.385 0.084 46.24 0 0 0
253 85 1 -0.8476 -63.207 1.955 49.517 0 0 0
254 85 2 0.4238 -63.881 2.416 48.995 0 0 0
255 85 2 0.4238 -63.667 1.713 50.334 0 0 0
256 86 1 -0.8476 -30.502 4.859 35.613 0 0 0
257 86 2 0.4238 -30.562 4.918 36.578 0 0 0
258 86 2 0.4238 -29.653 4.421 35.456 0 0 0
259 87 1 -0.8476 -53.258 21.489 53.997 0 0 0
260 87 2 0.4238 -54.146 21.722 54.306 0 0 0
261 87 2 0.4238 -52.754 21.349 54.812 0 0 0
262 88 1 -0.8476 -93.004 33.787 5.315 0 0 0
263 88 2 0.4238 -92.044 33.668 5.256 0 0 0
264 88 2 0.4238 -93.359 33.166 4.663 0 0 0
265 89 1 -0.8476 -74.495 28.066 17.388 0 0 0
266 89 2 0.4238 -74.647 28.464 16.517 0 0 0
267 89 2 0.4238 -75.258 28.35 17.913 0 0 0
268 90 1 -0.8476 -82.612 23.833 52.858 0 0 0
269 90 2 0.4238 -82.217 24.268 53.628 0 0 0
270 90 2 0.4238 -82.079 23.033 52.74 0 0 0
271 91 1 -0.8476 -79.19 25.712 33.136 0 0 0
272 91 2 0.4238 -78.831 26.222 33.878 0 0 0
273 91 2 0.4238 -79.304 24.821 33.497 0 0 0
274 92 1 -0.8476 -68.732 7.25 49.142 0 0 0
275 92 2 0.4238 -68.818 6.328 48.857 0 0 0
276 92 2 0.4238 -69.078 7.761 48.396 0 0 0
277 93 1 -0.8476 -54.879 31.978 36.644 0 0 0
278 93 2 0.4238 -54.34 31.785 37.426 0 0 0
279 93 2 0.4238 -55.257 31.12 36.402 0 0 0
280 94 1 -0.8476 -29.124 15.732 38.739 0 0 0
281 94 2 0.4238 -28.459 15.039 38.606 0 0 0
282 94 2 0.4238 -28.783 16.245 39.486 0 0 0
283 95 1 -0.8476 -57.903 30.237 15.316 0 0 0
284 95 2 0.4238 -58.834 30.111 15.077 0 0 0
285 95 2 0.4238 -57.424 30.072 14.491 0 0 0
286 96 1 -0.8476 -77.781 12.837 43.705 0 0 0
287 96 2 0.4238 -78.423 13.053 44.398 0 0 0
288 96 2 0.4238 -77.143 12.259 44.148 0 0 0
289 97 1 -0.8476 -75.679 17.047 3.16 0 0 0
290 97 2 0.4238 -75.232 16.251 2.836 0 0 0
291 97 2 0.4238 -75.854 17.561 2.357 0 0 0
292 98 1 -0.8476 -46.823 2.654 36.002 0 0 0
293 98 2 0.4238 -46.756 3.389 35.374 0 0 0
294 98 2 0.4238 -47.672 2.8 36.444 0 0 0
295 99 1 -0.8476 -85.1 24.004 4.194 0 0 0
296 99 2 0.4238 -85.674 24.735 4.467 0 0 0
297 99 2 0.4238 -84.485 24.41 3.565 0 0 0
298 100 1 -0.8476 -94.809 3.175 14.717 0 0 0
299 100 2 0.4238 -94.486 2.262 14.686 0 0 0
300 100 2 0.4238 -94.838 3.381 15.663 0 0 0
301 101 1 -0.8476 -54.638 17.531 42.766 0 0 0
302 101 2 0.4238 -54.059 18.253 43.05 0 0 0
303 101 2 0.4238 -55.492 17.961 42.611 0 0 0
304 102 1 -0.8476 -98.811 7.158 22.989 0 0 0
305 102 2 0.4238 -98.488 6.49 22.367 0 0 0
306 102 2 0.4238 -99.653 7.446 22.608 0 0 0
307 103 1 -0.8476 -72.232 14.691 7.397 0 0 0
308 103 2 0.4238 -73.116 15.074 7.299 0 0 0
309 103 2 0.4238 -72.392 13.737 7.438 0 0 0
310 104 1 -0.8476 -91.173 9.935 29.271 0 0 0
311 104 2 0.4238 -90.389 9.474 28.936 0 0 0
312 104 2 0.4238 -91.262 9.616 30.181 0 0 0
313 105 1 -0.8476 -41.012 28.1 17.012 0 0 0
314 105 2 0.4238 -40.199 28.607 17.16 0 0 0
315 105 2 0.4238 -41.365 27.956 17.902 0 0 0
316 106 1 -0.8476 -24.403 16.905 22.56 0 0 0
317 106 2 0.4238 -24.272 17.017 21.607 0 0 0
318 106 2 0.4238 -23.538 16.612 22.883 0 0 0
319 107 1 -0.8476 -62.895 14.486 41.641 0 0 0
320 107 2 0.4238 -62.687 15.426 41.752 0 0 0
321 107 2 0.4238 -62.955 14.371 40.681 0 0 0
322 108 1 -0.8476 -86.717 12.696 43.444 0 0 0
323 108 2 0.4238 -86.591 13.54 43.903 0 0 0
324 108 2 0.4238 -87.652 12.702 43.192 0 0 0
325 109 1 -0.8476 -54.13 31.996 22.956 0 0 0
326 109 2 0.4238 -54.351 32.104 22.019 0 0 0
327 109 2 0.4238 -54.949 31.665 23.354 0 0 0
328 110 1 -0.8476 -95.917 6.272 26.89 0 0 0
329 110 2 0.4238 -94.996 6.553 27.001 0 0 0
330 110 2 0.4238 -95.946 5.394 27.299 0 0 0
331 111 1 -0.8476 -16.397 10.133 11.113 0 0 0
332 111 2 0.4238 -15.872 9.678 11.789 0 0 0
333 111 2 0.4238 -15.98 9.874 10.278 0 0 0
334 112 1 -0.8476 -96.53 18.505 11.535 0 0 0
335 112 2 0.4238 -96.798 17.695 11.993 0 0 0
336 112 2 0.4238 -95.564 18.502 11.597 0 0 0
337 113 1 -0.8476 -56.403 28.423 23.669 0 0 0
338 113 2 0.4238 -55.601 28.768 24.089 0 0 0
339 113 2 0.4238 -56.429 27.493 23.939 0 0 0
340 114 1 -0.8476 -23.017 6.32 22.014 0 0 0
341 114 2 0.4238 -22.725 6.282 21.091 0 0 0
342 114 2 0.4238 -23.983 6.296 21.957 0 0 0
343 115 1 -0.8476 -29.425 22.938 46.437 0 0 0
344 115 2 0.4238 -29.75 22.056 46.199 0 0 0
345 115 2 0.4238 -29.382 23.408 45.591 0 0 0
346 116 1 -0.8476 -84.322 19.086 33.983 0 0 0
347 116 2 0.4238 -84.87 18.602 34.618 0 0 0
348 116 2 0.4238 -84.902 19.211 33.218 0 0 0
349 117 1 -0.8476 -98.79 12.125 22.636 0 0 0
350 117 2 0.4238 -98.917 11.777 21.74 0 0 0
351 117 2 0.4238 -99.409 12.868 22.688 0 0 0
352 118 1 -0.8476 -54.873 27.585 2.859 0 0 0
353 118 2 0.4238 -55.519 27.804 2.171 0 0 0
354 118 2 0.4238 -54.912 26.619 2.919 0 0 0
355 119 1 -0.8476 -91.075 6.33 53.073 0 0 0
356 119 2 0.4238 -90.651 6.527 52.225 0 0 0
357 119 2 0.4238 -91.779 5.705 52.845 0 0 0
358 120 1 -0.8476 -5.867 35.185 32.523 0 0 0
359 120 2 0.4238 -5.647 36.097 32.279 0 0 0
360 120 2 0.4238 -6.672 35.271 33.054 0 0 0
361 121 1 -0.8476 -26.164 6.438 17.71 0 0 0
362 121 2 0.4238 -26.653 7.257 17.883 0 0 0
363 121 2 0.4238 -25.926 6.116 18.591 0 0 0
364 122 1 -0.8476 -28.672 29.195 16.497 0 0 0
365 122 2 0.4238 -28.794 30.156 16.536 0 0 0
366 122 2 0.4238 -28.882 28.896 17.394 0 0 0
367 123 1 -0.8476 -14.829 3.881 52.026 0 0 0
368 123 2 0.4238 -14.38 4.598 52.499 0 0 0
369 123 2 0.4238 -14.138 3.214 51.901 0 0 0
370 124 1 -0.8476 -17.191 37.134 55.019 0 0 -1
371 124 2 0.4238 -17.571 37.946 0.386 0 0 0
372 124 2 0.4238 -17.888 36.472 55.142 0 0 -1
373 125 1 -0.8476 -95.986 23.693 10.967 0 0 0
374 125 2 0.4238 -95.482 24.512 10.842 0 0 0
375 125 2 0.4238 -95.872 23.218 10.131 0 0 0
376 126 1 -0.8476 -92.14 35.324 54.99 0 0 0
377 126 2 0.4238 -91.492 34.687 54.655 0 0 0
378 126 2 0.4238 -92.564 35.671 54.192 0 0 0
379 127 1 -0.8476 -39.594 16.02 29.995 0 0 0
380 127 2 0.4238 -38.73 15.741 29.658 0 0 0
381 127 2 0.4238 -39.409 16.322 30.897 0 0 0
382 128 1 -0.8476 -8.296 9.64 44.814 0 0 0
383 128 2 0.4238 -7.781 10.011 45.546 0 0 0
384 128 2 0.4238 -7.819 8.832 44.576 0 0 0
385 129 1 -0.8476 -48.624 15.952 51.436 0 0 0
386 129 2 0.4238 -48.229 15.145 51.073 0 0 0
387 129 2 0.4238 -48.087 16.666 51.063 0 0 0
388 130 1 -0.8476 -69.878 2.666 24.135 0 0 0
389 130 2 0.4238 -69.668 2.151 24.928 0 0 0
390 130 2 0.4238 -70.821 2.501 23.99 0 0 0
391 131 1 -0.8476 -67.138 34.814 35.775 0 0 0
392 131 2 0.4238 -67.216 35.41 35.015 0 0 0
393 131 2 0.4238 -67.388 33.948 35.421 0 0 0
394 132 1 -0.8476 -50.718 18.483 10.256 0 0 0
395 132 2 0.4238 -50.754 17.516 10.217 0 0 0
396 132 2 0.4238 -50.223 18.667 11.068 0 0 0
397 133 1 -0.8476 -93.646 24.974 39.007 0 0 0
398 133 2 0.4238 -93.055 25.041 38.241 0 0 0
399 133 2 0.4238 -93.05 24.798 39.749 0 0 0
400 134 1 -0.8476 -6.766 4.617 53.14 0 0 0
401 134 2 0.4238 -7.58 4.18 53.431 0 0 0
402 134 2 0.4238 -6.241 4.7 53.95 0 0 0
403 135 1 -0.8476 -66.602 17.42 6.569 0 0 0
404 135 2 0.4238 -67.488 17.697 6.292 0 0 0
405 135 2 0.4238 -66.024 17.735 5.859 0 0 0
406 136 1 -0.8476 -93.111 5.328 14.895 0 0 0
407 136 2 0.4238 -93.862 5.121 14.319 0 0 0
408 136 2 0.4238 -92.691 6.09 14.47 0 0 0
409 137 1 -0.8476 -19.799 1.631 12.519 0 0 0
410 137 2 0.4238 -20.711 1.318 12.612 0 0 0
411 137 2 0.4238 -19.374 1.369 13.348 0 0 0
412 138 1 -0.8476 -70.827 37.138 40.843 0 0 0
413 138 2 0.4238 -69.945 36.949 40.49 0 0 0
414 138 2 0.4238 -71.222 36.264 40.971 0 0 0
415 139 1 -0.8476 -41.588 34.145 21.732 0 0 0
416 139 2 0.4238 -40.908 34.835 21.713 0 0 0
417 139 2 0.4238 -41.581 33.782 20.834 0 0 0
418 140 1 -0.8476 -98.722 6.322 46.153 0 0 0
419 140 2 0.4238 -99.44 6.821 46.571 0 0 0
420 140 2 0.4238 -99.06 6.122 45.267 0 0 0
421 141 1 -0.8476 -7.904 14.062 51.236 0 0 0
422 141 2 0.4238 -7.432 14.864 51.508 0 0 0
423 141 2 0.4238 -7.635 13.932 50.315 0 0 0
424 142 1 -0.8476 -47.105 19.576 1.661 0 0 0
425 142 2 0.4238 -46.669 20.435 1.769 0 0 0
426 142 2 0.4238 -47.156 19.223 2.561 0 0 0
427 143 1 -0.8476 -32.031 1.986 11.638 0 0 0
428 143 2 0.4238 -32.822 2.469 11.354 0 0 0
429 143 2 0.4238 -32.358 1.381 12.32 0 0 0
430 144 1 -0.8476 -81.195 28.087 13.626 0 0 0
431 144 2 0.4238 -81.598 27.531 14.31 0 0 0
432 144 2 0.4238 -80.244 27.947 13.74 0 0 0
433 145 1 -0.8476 -71.404 11.433 1.866 0 0 0
434 145 2 0.4238 -72.076 10.735 1.877 0 0 0
435 145 2 0.4238 -71.301 11.646 0.927 0 0 0
436 146 1 -0.8476 -65.888 3.951 36.835 0 0 0
437 146 2 0.4238 -66.768 4.024 37.234 0 0 0
438 146 2 0.4238 -65.301 3.793 37.589 0 0 0
439 147 1 -0.8476 -34.006 29.181 47.814 0 0 0
440 147 2 0.4238 -33.106 29.15 48.173 0 0 0
441 147 2 0.4238 -34.396 29.967 48.225 0 0 0
442 148 1 -0.8476 -66.146 19.695 36.285 0 0 0
443 148 2 0.4238 -66.839 19.87 36.939 0 0 0
444 148 2 0.4238 -65.416 19.331 36.807 0 0 0
445 149 1 -0.8476 -12.59 34.453 22.832 0 0 0
446 149 2 0.4238 -12.829 34.16 23.725 0 0 0
447 149 2 0.4238 -12.889 33.73 22.261 0 0 0
448 150 1 -0.8476 -22.374 12.387 25.522 0 0 0
449 150 2 0.4238 -22.835 12.764 26.287 0 0 0
450 150 2 0.4238 -22.294 11.446 25.737 0 0 0
451 151 1 -0.8476 -76.842 4.033 4.28 0 0 0
452 151 2 0.4238 -77.514 3.341 4.186 0 0 0
453 151 2 0.4238 -76.711 4.359 3.378 0 0 0
454 152 1 -0.8476 -7.992 5.626 30.304 0 0 0
455 152 2 0.4238 -7.468 5.294 29.559 0 0 0
456 152 2 0.4238 -8.845 5.179 30.209 0 0 0
457 153 1 -0.8476 -95.424 12.319 23.179 0 0 0
458 153 2 0.4238 -96.303 12.571 22.859 0 0 0
459 153 2 0.4238 -94.865 12.362 22.39 0 0 0
460 154 1 -0.8476 -14.811 33.726 41.279 0 0 0
461 154 2 0.4238 -14.768 33.396 40.368 0 0 0
462 154 2 0.4238 -15.036 34.663 41.179 0 0 0
463 155 1 -0.8476 -92.798 26.104 11.215 0 0 0
464 155 2 0.4238 -93.754 26.002 11.337 0 0 0
465 155 2 0.4238 -92.575 25.442 10.545 0 0 0
466 156 1 -0.8476 -95.902 16.723 54.527 0 0 0
467 156 2 0.4238 -95.041 17.165 54.492 0 0 0
468 156 2 0.4238 -96.538 17.451 54.592 0 0 0
469 157 1 -0.8476 -35.637 35.259 24.352 0 0 0
470 157 2 0.4238 -35.336 34.431 24.755 0 0 0
471 157 2 0.4238 -34.818 35.744 24.173 0 0 0
472 158 1 -0.8476 -77.188 20.938 6.637 0 0 0
473 158 2 0.4238 -76.574 20.188 6.633 0 0 0
474 158 2 0.4238 -77.075 21.339 5.763 0 0 0
475 159 1 -0.8476 -43.352 0.691 35.473 0 0 0
476 159 2 0.4238 -42.718 -0 35.229 0 0 0
477 159 2 0.4238 -43.971 0.243 36.068 0 0 0
478 160 1 -0.8476 -38.247 13.843 49.66 0 0 0
479 160 2 0.4238 -38.054 13.589 48.745 0 0 0
480 160 2 0.4238 -37.961 14.767 49.713 0 0 0
481 161 1 -0.8476 -89.26 27.325 1.014 0 0 0
482 161 2 0.4238 -89.418 28.235 1.308 0 0 0
483 161 2 0.4238 -88.815 26.909 1.766 0 0 0
484 162 1 -0.8476 -10.699 30.4 31.811 0 0 0
485 162 2 0.4238 -10.745 31.293 31.439 0 0 0
486 162 2 0.4238 -10.484 29.839 31.052 0 0 0
487 163 1 -0.8476 -87.355 29.635 28.968 0 0 0
488 163 2 0.4238 -88.156 29.343 29.428 0 0 0
489 163 2 0.4238 -87.348 30.595 29.095 0 0 0
490 164 1 -0.8476 -46.77 13.412 45.376 0 0 0
491 164 2 0.4238 -47.72 13.5 45.205 0 0 0
492 164 2 0.4238 -46.726 12.948 46.225 0 0 0
493 165 1 -0.8476 -36.267 11.917 24.86 0 0 0
494 165 2 0.4238 -37.168 11.563 24.815 0 0 0
495 165 2 0.4238 -36.028 12.07 23.934 0 0 0
496 166 1 -0.8476 -36.344 0.426 8.828 0 0 0
497 166 2 0.4238 -36.117 0.03 7.973 0 0 0
498 166 2 0.4238 -35.735 0.004 9.452 0 0 0
499 167 1 -0.8476 -18.799 34.343 36.675 0 0 0
500 167 2 0.4238 -18.165 33.617 36.78 0 0 0
501 167 2 0.4238 -18.81 34.772 37.543 0 0 0
502 168 1 -0.8476 -48.482 11.119 44.643 0 0 0
503 168 2 0.4238 -47.708 10.555 44.787 0 0 0
504 168 2 0.4238 -48.733 11.407 45.533 0 0 0
505 169 1 -0.8476 -72.026 0.811 8.358 0 0 0
506 169 2 0.4238 -71.542 0.001 8.58 0 0 0
507 169 2 0.4238 -72.225 1.209 9.217 0 0 0
508 170 1 -0.8476 -17.206 19.356 36.484 0 0 0
509 170 2 0.4238 -17.89 19.562 35.829 0 0 0
510 170 2 0.4238 -16.409 19.21 35.954 0 0 0
511 171 1 -0.8476 -28.371 33.075 17.504 0 0 0
512 171 2 0.4238 -28.846 33.898 17.693 0 0 0
513 171 2 0.4238 -28.901 32.391 17.939 0 0 0
514 172 1 -0.8476 -62.965 0.787 47.669 0 0 0
515 172 2 0.4238 -63.109 1.553 47.094 0 0 0
516 172 2 0.4238 -63.843 0.385 47.75 0 0 0
517 173 1 -0.8476 -73.613 15.96 33.507 0 0 0
518 173 2 0.4238 -73.101 16.708 33.164 0 0 0
519 173 2 0.4238 -73.006 15.208 33.435 0 0 0
520 174 1 -0.8476 -25.64 34.97 40.046 0 0 0
521 174 2 0.4238 -25.461 35.895 39.821 0 0 0
522 174 2 0.4238 -25.035 34.468 39.48 0 0 0
523 175 1 -0.8476 -99.973 12.917 48.44 0 0 0
524 175 2 0.4238 -99.646 12.135 48.911 0 0 0
525 175 2 0.4238 -100 13.606 49.12 0 0 0
526 176 1 -0.8476 -38.225 37.982 50.027 0 0 0
527 176 2 0.4238 -38.397 37.117 49.626 0 0 0
528 176 2 0.4238 -37.264 38.083 49.964 0 0 0
529 177 1 -0.8476 -10.342 19.232 13.736 0 0 0
530 177 2 0.4238 -10.412 18.269 13.656 0 0 0
531 177 2 0.4238 -9.978 19.369 14.622 0 0 0
532 178 1 -0.8476 -31.964 24.327 28.796 0 0 0
533 178 2 0.4238 -32.592 23.734 29.235 0 0 0
534 178 2 0.4238 -31.587 24.847 29.521 0 0 0
535 179 1 -0.8476 -99.407 3.396 18.36 0 0 0
536 179 2 0.4238 -100 4.127 18.59 0 0 0
537 179 2 0.4238 -99.57 2.736 19.049 0 0 0
538 180 1 -0.8476 -52.182 13.04 52.563 0 0 0
539 180 2 0.4238 -52.566 12.179 52.336 0 0 0
540 180 2 0.4238 -52.383 13.596 51.797 0 0 0
541 181 1 -0.8476 -96.455 26.299 22.05 0 0 0
542 181 2 0.4238 -95.834 26.976 21.741 0 0 0
543 181 2 0.4238 -96.489 25.661 21.322 0 0 0
544 182 1 -0.8476 -69.493 24.816 42.558 0 0 0
545 182 2 0.4238 -68.656 24.605 42.118 0 0 0
546 182 2 0.4238 -70.139 24.841 41.836 0 0 0
547 183 1 -0.8476 -63.48 27.892 7.223 0 0 0
548 183 2 0.4238 -62.678 28.437 7.21 0 0 0
549 183 2 0.4238 -63.89 28.097 8.076 0 0 0
550 184 1 -0.8476 -92.398 23.612 30.375 0 0 0
551 184 2 0.4238 -92.613 24.557 30.388 0 0 0
552 184 2 0.4238 -92.549 23.324 31.287 0 0 0
553 185 1 -0.8476 -59.112 2.563 41.1 0 0 0
554 185 2 0.4238 -58.23 2.254 41.355 0 0 0
555 185 2 0.4238 -59.249 2.184 40.219 0 0 0
556 186 1 -0.8476 -64.367 4.794 27.841 0 0 0
557 186 2 0.4238 -64.111 4.925 26.916 0 0 0
558 186 2 0.4238 -64.107 5.62 28.275 0 0 0
559 187 1 -0.8476 -68.449 24.181 46.075 0 0 0
560 187 2 0.4238 -69.307 24.624 46.158 0 0 0
561 187 2 0.4238 -68.389 23.958 45.135 0 0 0
562 188 1 -0.8476 -67.16 8.627 15.716 0 0 0
563 188 2 0.4238 -67.734 7.86 15.572 0 0 0
564 188 2 0.4238 -66.611 8.663 14.918 0 0 0
565 189 1 -0.8476 -35.662 0.754 36.262 0 0 0
566 189 2 0.4238 -36.033 0.008 35.767 0 0 0
567 189 2 0.4238 -36.029 0.652 37.152 0 0 0
568 190 1 -0.8476 -73.563 24.86 25.142 0 0 0
569 190 2 0.4238 -74.067 25.608 25.497 0 0 0
570 190 2 0.4238 -73.177 24.444 25.927 0 0 0
571 191 1 -0.8476 -91.216 12.158 33.638 0 0 0
572 191 2 0.4238 -90.288 12.433 33.601 0 0 0
573 191 2 0.4238 -91.379 12.004 34.58 0 0 0
574 192 1 -0.8476 -64.513 20.184 40.826 0 0 0
575 192 2 0.4238 -65.038 20.998 40.78 0 0 0
576 192 2 0.4238 -63.607 20.479 40.655 0 0 0
577 193 1 -0.8476 -81.518 34.658 23.54 0 0 0
578 193 2 0.4238 -82.042 35.336 23.087 0 0 0
579 193 2 0.4238 -81.605 34.883 24.478 0 0 0
580 194 1 -0.8476 -54.832 7.764 32.972 0 0 0
581 194 2 0.4238 -54.923 7.087 32.284 0 0 0
582 194 2 0.4238 -55.619 8.318 32.862 0 0 0
583 195 1 -0.8476 -63.483 6.398 5.67 0 0 0
584 195 2 0.4238 -63.444 7.349 5.492 0 0 0
585 195 2 0.4238 -63.225 5.99 4.831 0 0 0
586 196 1 -0.8476 -96.946 24.591 43.839 0 0 0
587 196 2 0.4238 -96.057 24.298 44.09 0 0 0
588 196 2 0.4238 -97.293 25.003 44.643 0 0 0
589 197 1 -0.8476 -68.232 2.267 45.92 0 0 0
590 197 2 0.4238 -67.967 1.337 45.855 0 0 0
591 197 2 0.4238 -68.892 2.275 46.629 0 0 0
592 198 1 -0.8476 -80.911 11.636 52.375 0 0 0
593 198 2 0.4238 -80.684 12.488 51.974 0 0 0
594 198 2 0.4238 -81.414 11.874 53.167 0 0 0
595 199 1 -0.8476 -90.782 32.359 15.085 0 0 0
596 199 2 0.4238 -90.556 32.047 14.196 0 0 0
597 199 2 0.4238 -90.195 31.855 15.667 0 0 0
598 200 1 -0.8476 -73.368 5.344 22.402 0 0 0
599 200 2 0.4238 -73.802 4.635 22.9 0 0 0
600 200 2 0.4238 -72.806 5.782 23.057 0 0 0
601 201 1 -0.8476 -31.995 23.725 15.037 0 0 0
602 201 2 0.4238 -32.706 23.139 14.738 0 0 0
603 201 2 0.4238 -32.047 23.684 16.003 0 0 0
604 202 1 -0.8476 -91.425 36.7 15.996 0 0 0
605 202 2 0.4238 -90.573 37.161 15.983 0 0 0
606 202 2 0.4238 -91.684 36.711 16.929 0 0 0
607 203 1 -0.8476 -13.736 34.329 38.142 0 0 0
608 203 2 0.4238 -13.905 33.953 37.265 0 0 0
609 203 2 0.4238 -12.967 33.837 38.465 0 0 0
610 204 1 -0.8476 -99.09 5.473 39.607 0 0 0
611 204 2 0.4238 -99.503 4.706 40.03 0 0 0
612 204 2 0.4238 -99.83 5.939 39.192 0 0 0
613 205 1 -0.8476 -89.051 24.257 42.79 0 0 0
614 205 2 0.4238 -89.52 23.88 42.031 0 0 0
615 205 2 0.4238 -88.969 25.197 42.573 0 0 0
616 206 1 -0.8476 -19.338 23.804 38.646 0 0 0
617 206 2 0.4238 -20.242 23.68 38.972 0 0 0
618 206 2 0.4238 -18.827 24.006 39.443 0 0 0
619 207 1 -0.8476 -26.789 32.327 3.274 0 0 0
620 207 2 0.4238 -27.611 32.082 3.725 0 0 0
621 207 2 0.4238 -27.08 32.634 2.403 0 0 0
622 208 1 -0.8476 -54.947 37.255 54.153 0 0 0
623 208 2 0.4238 -55.731 37.589 53.692 0 0 0
624 208 2 0.4238 -54.474 36.748 53.477 0 0 0
625 209 1 -0.8476 -71.465 26.316 44.572 0 0 0
626 209 2 0.4238 -70.998 26.526 43.75 0 0 0
627 209 2 0.4238 -71.717 27.181 44.928 0 0 0
628 210 1 -0.8476 -87.189 27.233 38.349 0 0 0
629 210 2 0.4238 -86.69 26.403 38.369 0 0 0
630 210 2 0.4238 -87.165 27.543 39.266 0 0 0
631 211 1 -0.8476 -88.807 13.229 45.771 0 0 0
632 211 2 0.4238 -88.975 12.819 46.633 0 0 0
633 211 2 0.4238 -88.278 12.57 45.297 0 0 0
634 212 1 -0.8476 -29.165 36.136 53.824 0 0 0
635 212 2 0.4238 -29.97 35.603 53.734 0 0 0
636 212 2 0.4238 -28.503 35.508 54.147 0 0 0
637 213 1 -0.8476 -22.595 15.075 51.269 0 0 0
638 213 2 0.4238 -22.317 15.991 51.422 0 0 0